    -----------------------------------------------------------------------
          Psi4: An Open-Source Ab Initio Electronic Structure Package
                              Psi4 1.0.0 Driver

                          Git: Rev {master} 6a9a71b dirty

    J. M. Turney, A. C. Simmonett, R. M. Parrish, E. G. Hohenstein,
    F. A. Evangelista, J. T. Fermann, B. J. Mintz, L. A. Burns, J. J. Wilke,
    M. L. Abrams, N. J. Russ, M. L. Leininger, C. L. Janssen, E. T. Seidl,
    W. D. Allen, H. F. Schaefer, R. A. King, E. F. Valeev, C. D. Sherrill,
    and T. D. Crawford, WIREs Comput. Mol. Sci. 2, 556-565 (2012)
    (doi: 10.1002/wcms.93)

                         Additional Contributions by
    A. E. DePrince, U. Bozkaya, A. Yu. Sokolov, D. G. A. Smith, R. Di Remigio,
    R. M. Richard, J. F. Gonthier, H. R. McAlexander, M. Saitow, and
    B. P. Pritchard
    -----------------------------------------------------------------------


    Psi4 started on: Thu Sep 22 07:15:35 2016

    Process ID:  32618
    PSI4DATADIR: /usr/local/hpc5/psi4conda/share/psi4
    Memory level set to 256.000 MB

  ==> Input File <==

--------------------------------------------------------------------------
memory 60 Gb

molecule molecule_05_psi {
0 1
    C            4.173290238529    -0.117235264765     0.126180169825
    H            4.543416564889     0.784290329623    -0.363602285635
    H            4.827023570646    -0.943459426696    -0.152137838390
    H            4.260725833460     0.031188931823     1.203288571817
    C           -4.173290438737     0.117234913726    -0.126178590694
    H           -4.260724703787    -0.031179590246    -1.203288427133
    H           -4.827024806183     0.943455978423     0.152146199994
    H           -4.543416485120    -0.784295471068     0.363595290428
    C            2.725246783732    -0.388768845052    -0.263932376801
    H            2.390688605550    -1.313018405727     0.210506161305
    H            2.656778673307    -0.549551262404    -1.343743910215
    C           -2.725247628694     0.388766356227     0.263938265035
    H           -2.390689652741     1.313020313639    -0.210491923954
    H           -2.656780703302     0.549539543456     1.343751270618
    C            1.803507217674     0.761668645664     0.125719510490
    H            2.204577468263     1.686497095888    -0.299470199954
    H            1.826041128868     0.887446104753     1.213353202296
    C            0.356519015698     0.587352288033    -0.331187879701
    H            0.335053686487     0.451491214456    -1.418017364793
    H           -0.190736325304     1.508942330598    -0.122273237776
    C           -0.356518364768    -0.587351139653     0.331183613652
    H            0.190736601918    -1.508941287620     0.122267502810
    H           -0.335052262898    -0.451490688566     1.418013326764
    C           -1.803506831569    -0.761666941445    -0.125722736217
    H           -1.826042046891    -0.887436886439    -1.213357262929
    H           -2.204575050292    -1.686498975553     0.299461215412
}

set globals {
  reference rhf
  freeze_core true
}
energy(cbs, corl_wfn='mp2', corl_basis='cc-pv[tq]z', scf_basis='cc-pv[tq]z', corl_scheme=corl_xtpl_helgaker_2, scf_scheme=scf_xtpl_helgaker_2)
--------------------------------------------------------------------------
/usr/local/hpc5/psi4conda/lib/python2.7/site-packages/v2rdm_casscf/v2rdm_casscf.so loaded.

  Memory set to  60.000 GiB by Python script.

  //>>>>>>>>>>>>>>>>>>>>>>>>>>>>>>>>>>>//
  //     CBS Setup: custom function    //
  //<<<<<<<<<<<<<<<<<<<<<<<<<<<<<<<<<<<//

    Naive listing of computations required.
             hf / cc-pvtz                  for  HF TOTAL ENERGY
             hf / cc-pvqz                  for  HF TOTAL ENERGY
            mp2 / cc-pvtz                  for  MP2 TOTAL ENERGY
            mp2 / cc-pvqz                  for  MP2 TOTAL ENERGY
             hf / cc-pvtz                  for  HF TOTAL ENERGY
             hf / cc-pvqz                  for  HF TOTAL ENERGY

    Enlightened listing of computations required.
            mp2 / cc-pvtz                  for  MP2 TOTAL ENERGY
            mp2 / cc-pvqz                  for  MP2 TOTAL ENERGY

    Full listing of computations to be obtained (required and bonus).
            mp2 / cc-pvtz                  for  MP2 TOTAL ENERGY
             hf / cc-pvtz                  for  HF TOTAL ENERGY
            mp2 / cc-pvqz                  for  MP2 TOTAL ENERGY
             hf / cc-pvqz                  for  HF TOTAL ENERGY

  //>>>>>>>>>>>>>>>>>>>>>>>>>>>>>>>>>>>//
  //   CBS Computation: MP2 / CC-PVTZ  //
  //<<<<<<<<<<<<<<<<<<<<<<<<<<<<<<<<<<<//

    SCF Algorithm Type (re)set to DF.

*** tstart() called on wr40
*** at Thu Sep 22 07:15:36 2016


         ---------------------------------------------------------
                                   SCF
            by Justin Turney, Rob Parrish, and Andy Simmonett
                              RHF Reference
                       12 Threads,  60000 MiB Core
         ---------------------------------------------------------

  ==> Geometry <==

    Molecular point group: c1
    Full point group: C1

    Geometry (in Angstrom), charge = 0, multiplicity = 1:

       Center              X                  Y                   Z               Mass       
    ------------   -----------------  -----------------  -----------------  -----------------
           C          4.173290238529    -0.117235264765     0.126180169825    12.000000000000
           H          4.543416564889     0.784290329623    -0.363602285635     1.007825032070
           H          4.827023570646    -0.943459426696    -0.152137838390     1.007825032070
           H          4.260725833460     0.031188931823     1.203288571817     1.007825032070
           C         -4.173290438737     0.117234913726    -0.126178590694    12.000000000000
           H         -4.260724703787    -0.031179590246    -1.203288427133     1.007825032070
           H         -4.827024806183     0.943455978423     0.152146199994     1.007825032070
           H         -4.543416485120    -0.784295471068     0.363595290428     1.007825032070
           C          2.725246783732    -0.388768845052    -0.263932376801    12.000000000000
           H          2.390688605550    -1.313018405727     0.210506161305     1.007825032070
           H          2.656778673307    -0.549551262404    -1.343743910215     1.007825032070
           C         -2.725247628694     0.388766356227     0.263938265035    12.000000000000
           H         -2.390689652741     1.313020313639    -0.210491923954     1.007825032070
           H         -2.656780703302     0.549539543456     1.343751270618     1.007825032070
           C          1.803507217674     0.761668645664     0.125719510490    12.000000000000
           H          2.204577468263     1.686497095888    -0.299470199954     1.007825032070
           H          1.826041128868     0.887446104753     1.213353202296     1.007825032070
           C          0.356519015698     0.587352288033    -0.331187879701    12.000000000000
           H          0.335053686487     0.451491214456    -1.418017364793     1.007825032070
           H         -0.190736325304     1.508942330598    -0.122273237776     1.007825032070
           C         -0.356518364768    -0.587351139653     0.331183613652    12.000000000000
           H          0.190736601918    -1.508941287620     0.122267502810     1.007825032070
           H         -0.335052262898    -0.451490688566     1.418013326764     1.007825032070
           C         -1.803506831569    -0.761666941445    -0.125722736217    12.000000000000
           H         -1.826042046891    -0.887436886439    -1.213357262929     1.007825032070
           H         -2.204575050292    -1.686498975553     0.299461215412     1.007825032070

  Running in c1 symmetry.

  Rotational constants: A =      0.25992  B =      0.01950  C =      0.01893 [cm^-1]
  Rotational constants: A =   7792.09500  B =    584.69868  C =    567.40534 [MHz]
  Nuclear repulsion =  385.127983023872844

  Charge       = 0
  Multiplicity = 1
  Electrons    = 66
  Nalpha       = 33
  Nbeta        = 33

  ==> Algorithm <==

  SCF Algorithm Type is DF.
  DIIS enabled.
  MOM disabled.
  Fractional occupation disabled.
  Guess Type is SAD.
  Energy threshold   = 1.00e-08
  Density threshold  = 1.00e-08
  Integral threshold = 0.00e+00

  ==> Primary Basis <==

  Basis Set: CC-PVTZ
    Number of shells: 188
    Number of basis function: 492
    Number of Cartesian functions: 550
    Spherical Harmonics?: true
    Max angular momentum: 3

  ==> Pre-Iterations <==

   -------------------------------------------------------
    Irrep   Nso     Nmo     Nalpha   Nbeta   Ndocc  Nsocc
   -------------------------------------------------------
     A        492     492       0       0       0       0
   -------------------------------------------------------
    Total     492     492      33      33      33       0
   -------------------------------------------------------

  ==> Integral Setup <==

  ==> DFJK: Density-Fitted J/K Matrices <==

    J tasked:                  Yes
    K tasked:                  Yes
    wK tasked:                  No
    OpenMP threads:             12
    Integrals threads:          12
    Memory (MB):             42915
    Algorithm:                Core
    Integral Cache:           NONE
    Schwarz Cutoff:          1E-12
    Fitting Condition:       1E-12

   => Auxiliary Basis Set <=

  Basis Set: 
    Number of shells: 380
    Number of basis function: 1172
    Number of Cartesian functions: 1398
    Spherical Harmonics?: true
    Max angular momentum: 4

  Minimum eigenvalue in the overlap matrix is 2.5896322213E-04.
  Using Symmetric Orthogonalization.
  SCF Guess: Superposition of Atomic Densities via on-the-fly atomic UHF.

  ==> Iterations <==

                           Total Energy        Delta E     RMS |[F,P]|

   @DF-RHF iter   0:  -317.62900609480801   -3.17629e+02   1.15872e-02 
   @DF-RHF iter   1:  -313.32302044747553    4.30599e+00   1.04100e-03 
   @DF-RHF iter   2:  -313.52188815208478   -1.98868e-01   3.17848e-04 DIIS
   @DF-RHF iter   3:  -313.53919656326332   -1.73084e-02   1.20574e-04 DIIS
   @DF-RHF iter   4:  -313.54199223146736   -2.79567e-03   2.64407e-05 DIIS
   @DF-RHF iter   5:  -313.54216739137360   -1.75160e-04   5.30569e-06 DIIS
   @DF-RHF iter   6:  -313.54217587158826   -8.48021e-06   1.54188e-06 DIIS
   @DF-RHF iter   7:  -313.54217641345122   -5.41863e-07   3.84259e-07 DIIS
   @DF-RHF iter   8:  -313.54217644536766   -3.19164e-08   8.53683e-08 DIIS
   @DF-RHF iter   9:  -313.54217644703567   -1.66801e-09   1.98249e-08 DIIS
   @DF-RHF iter  10:  -313.54217644712378   -8.81073e-11   5.60265e-09 DIIS

  ==> Post-Iterations <==

    Orbital Energies (a.u.)
    -----------------------

    Doubly Occupied:                                                      

       1A    -11.211827     2A    -11.211827     3A    -11.210552  
       4A    -11.210455     5A    -11.209898     6A    -11.209371  
       7A    -11.206801     8A    -11.206801     9A     -1.093874  
      10A     -1.060983    11A     -1.009830    12A     -0.950197  
      13A     -0.873865    14A     -0.832135    15A     -0.790682  
      16A     -0.762214    17A     -0.633649    18A     -0.633285  
      19A     -0.617376    20A     -0.591673    21A     -0.578645  
      22A     -0.553834    23A     -0.545278    24A     -0.541125  
      25A     -0.510597    26A     -0.503694    27A     -0.478539  
      28A     -0.477134    29A     -0.468546    30A     -0.458150  
      31A     -0.454040    32A     -0.439024    33A     -0.433022  

    Virtual:                                                              

      34A      0.145903    35A      0.147931    36A      0.160020  
      37A      0.161199    38A      0.167534    39A      0.190851  
      40A      0.195523    41A      0.203231    42A      0.218281  
      43A      0.224118    44A      0.230045    45A      0.230921  
      46A      0.246482    47A      0.253769    48A      0.260853  
      49A      0.271108    50A      0.277264    51A      0.283166  
      52A      0.315138    53A      0.325350    54A      0.341419  
      55A      0.351989    56A      0.365004    57A      0.372313  
      58A      0.379420    59A      0.399479    60A      0.409091  
      61A      0.413406    62A      0.417389    63A      0.434640  
      64A      0.443238    65A      0.476855    66A      0.485052  
      67A      0.495715    68A      0.499862    69A      0.518542  
      70A      0.524303    71A      0.552934    72A      0.558402  
      73A      0.577051    74A      0.579416    75A      0.588324  
      76A      0.597257    77A      0.611854    78A      0.616550  
      79A      0.617384    80A      0.632489    81A      0.639848  
      82A      0.645276    83A      0.648934    84A      0.654133  
      85A      0.654968    86A      0.661819    87A      0.664157  
      88A      0.667557    89A      0.677063    90A      0.688662  
      91A      0.689894    92A      0.707544    93A      0.708655  
      94A      0.717978    95A      0.718344    96A      0.726202  
      97A      0.748392    98A      0.757779    99A      0.769551  
     100A      0.776800   101A      0.813446   102A      0.839872  
     103A      0.848972   104A      0.865703   105A      0.878723  
     106A      0.898523   107A      0.903667   108A      0.925064  
     109A      0.928961   110A      0.948796   111A      0.962353  
     112A      0.964359   113A      0.993454   114A      0.995415  
     115A      1.007676   116A      1.023706   117A      1.048754  
     118A      1.055064   119A      1.075834   120A      1.085197  
     121A      1.101096   122A      1.104722   123A      1.111064  
     124A      1.121160   125A      1.134185   126A      1.137883  
     127A      1.195284   128A      1.203682   129A      1.225047  
     130A      1.230210   131A      1.232174   132A      1.253416  
     133A      1.259049   134A      1.280110   135A      1.283579  
     136A      1.288466   137A      1.307994   138A      1.320213  
     139A      1.321926   140A      1.331799   141A      1.338181  
     142A      1.343591   143A      1.343944   144A      1.346947  
     145A      1.368917   146A      1.372019   147A      1.390151  
     148A      1.395595   149A      1.405152   150A      1.408019  
     151A      1.416476   152A      1.428164   153A      1.428359  
     154A      1.436844   155A      1.444088   156A      1.446599  
     157A      1.469573   158A      1.479244   159A      1.484068  
     160A      1.486670   161A      1.491004   162A      1.508662  
     163A      1.519850   164A      1.525576   165A      1.532047  
     166A      1.540475   167A      1.551233   168A      1.551975  
     169A      1.566911   170A      1.591903   171A      1.603628  
     172A      1.610655   173A      1.616601   174A      1.618746  
     175A      1.638605   176A      1.648932   177A      1.655333  
     178A      1.677766   179A      1.679819   180A      1.694570  
     181A      1.723470   182A      1.734171   183A      1.741550  
     184A      1.752979   185A      1.754932   186A      1.779826  
     187A      1.793179   188A      1.822971   189A      1.826906  
     190A      1.829706   191A      1.832183   192A      1.857578  
     193A      1.862528   194A      1.875742   195A      1.876017  
     196A      1.887492   197A      1.958310   198A      1.966677  
     199A      1.986174   200A      2.079539   201A      2.089936  
     202A      2.141852   203A      2.531242   204A      2.540755  
     205A      2.581934   206A      2.590326   207A      2.618063  
     208A      2.625292   209A      2.654556   210A      2.660797  
     211A      2.683077   212A      2.688537   213A      2.712323  
     214A      2.726987   215A      2.748327   216A      2.749651  
     217A      2.761766   218A      2.769441   219A      2.792755  
     220A      2.802293   221A      2.806005   222A      2.836465  
     223A      2.844135   224A      2.867991   225A      2.869824  
     226A      2.876463   227A      2.885927   228A      2.893853  
     229A      2.924114   230A      2.930701   231A      2.939738  
     232A      2.952146   233A      2.974218   234A      2.989306  
     235A      2.992801   236A      2.996238   237A      3.026339  
     238A      3.040935   239A      3.043452   240A      3.051876  
     241A      3.061979   242A      3.081872   243A      3.089035  
     244A      3.101694   245A      3.121232   246A      3.127661  
     247A      3.132001   248A      3.136280   249A      3.168553  
     250A      3.176293   251A      3.180587   252A      3.191105  
     253A      3.220643   254A      3.220726   255A      3.239432  
     256A      3.246964   257A      3.261935   258A      3.273495  
     259A      3.296782   260A      3.305050   261A      3.319439  
     262A      3.342120   263A      3.346143   264A      3.357054  
     265A      3.358640   266A      3.367897   267A      3.378600  
     268A      3.383841   269A      3.384823   270A      3.411220  
     271A      3.416247   272A      3.419156   273A      3.422146  
     274A      3.425873   275A      3.442219   276A      3.448737  
     277A      3.456812   278A      3.461848   279A      3.483278  
     280A      3.486754   281A      3.489118   282A      3.505686  
     283A      3.513566   284A      3.514451   285A      3.517659  
     286A      3.535464   287A      3.545109   288A      3.558647  
     289A      3.564207   290A      3.567867   291A      3.573116  
     292A      3.587226   293A      3.593698   294A      3.617505  
     295A      3.627676   296A      3.635025   297A      3.653117  
     298A      3.658383   299A      3.665231   300A      3.676280  
     301A      3.694126   302A      3.717502   303A      3.722597  
     304A      3.728531   305A      3.773887   306A      3.779568  
     307A      3.782047   308A      3.791369   309A      3.803708  
     310A      3.806070   311A      3.835182   312A      3.839361  
     313A      3.857366   314A      3.861748   315A      3.886393  
     316A      3.896092   317A      3.899552   318A      3.920060  
     319A      3.933157   320A      3.935094   321A      3.951934  
     322A      3.957045   323A      3.964857   324A      3.972288  
     325A      4.008123   326A      4.013124   327A      4.023434  
     328A      4.040521   329A      4.053035   330A      4.056295  
     331A      4.074622   332A      4.109024   333A      4.110334  
     334A      4.110532   335A      4.132289   336A      4.134052  
     337A      4.141527   338A      4.147211   339A      4.156718  
     340A      4.167905   341A      4.178779   342A      4.182559  
     343A      4.196767   344A      4.203996   345A      4.206915  
     346A      4.214352   347A      4.216759   348A      4.230085  
     349A      4.239197   350A      4.259948   351A      4.278133  
     352A      4.288891   353A      4.297565   354A      4.309451  
     355A      4.314625   356A      4.325950   357A      4.335003  
     358A      4.346437   359A      4.362834   360A      4.368345  
     361A      4.373484   362A      4.377103   363A      4.404153  
     364A      4.414139   365A      4.418765   366A      4.435126  
     367A      4.439318   368A      4.455589   369A      4.462586  
     370A      4.470770   371A      4.482399   372A      4.485372  
     373A      4.499847   374A      4.505951   375A      4.516846  
     376A      4.533805   377A      4.544536   378A      4.551453  
     379A      4.558601   380A      4.566962   381A      4.581402  
     382A      4.592804   383A      4.596828   384A      4.617702  
     385A      4.623837   386A      4.627799   387A      4.640951  
     388A      4.662776   389A      4.672052   390A      4.676235  
     391A      4.711095   392A      4.712182   393A      4.727545  
     394A      4.741006   395A      4.755716   396A      4.769630  
     397A      4.780077   398A      4.785447   399A      4.799613  
     400A      4.833715   401A      4.839742   402A      4.862042  
     403A      4.879586   404A      4.937633   405A      4.959474  
     406A      5.008402   407A      5.025834   408A      5.034635  
     409A      5.035157   410A      5.055536   411A      5.079072  
     412A      5.079383   413A      5.096078   414A      5.109921  
     415A      5.115679   416A      5.125221   417A      5.134148  
     418A      5.180768   419A      5.184163   420A      5.217487  
     421A      5.219441   422A      5.237250   423A      5.238202  
     424A      5.260873   425A      5.278700   426A      5.282984  
     427A      5.303037   428A      5.315205   429A      5.320793  
     430A      5.353759   431A      5.360146   432A      5.368055  
     433A      5.372136   434A      5.401627   435A      5.406998  
     436A      5.419828   437A      5.432098   438A      5.449091  
     439A      5.488779   440A      5.498239   441A      5.526495  
     442A      5.550224   443A      5.561230   444A      5.599297  
     445A      5.610883   446A      5.631814   447A      5.637653  
     448A      5.658589   449A      5.720078   450A      5.725776  
     451A      5.729607   452A      5.735187   453A      5.738281  
     454A      5.763926   455A      5.777644   456A      5.821265  
     457A      5.824331   458A      5.833001   459A      5.865526  
     460A      5.876062   461A      5.885131   462A      5.890685  
     463A      5.906692   464A      5.914996   465A      5.915546  
     466A      5.940256   467A      5.962516   468A      5.966059  
     469A      5.971566   470A      6.033860   471A      6.053615  
     472A      6.074030   473A      6.128016   474A      6.130767  
     475A      6.311077   476A      6.313860   477A      6.324502  
     478A      6.327652   479A      6.350764   480A      6.370338  
     481A      6.407607   482A      6.480991   483A      6.504095  
     484A      6.526221   485A     13.103358   486A     13.118921  
     487A     13.280386   488A     13.651993   489A     13.849359  
     490A     13.970681   491A     14.189249   492A     14.211885  

    Final Occupation by Irrep:
              A 
    DOCC [    33 ]

  Energy converged.

  @DF-RHF Final Energy:  -313.54217644712378

   => Energetics <=

    Nuclear Repulsion Energy =            385.1279830238728437
    One-Electron Energy =               -1185.4024760435902408
    Two-Electron Energy =                 486.7323165725935610
    DFT Exchange-Correlation Energy =       0.0000000000000000
    Empirical Dispersion Energy =           0.0000000000000000
    PCM Polarization Energy =               0.0000000000000000
    EFP Energy =                            0.0000000000000000
    Total Energy =                       -313.5421764471238362


  Saving occupied orbitals to File 180.

*** tstop() called on wr40 at Thu Sep 22 07:15:50 2016
Module time:
	user time   =     140.49 seconds =       2.34 minutes
	system time =       2.54 seconds =       0.04 minutes
	total time  =         14 seconds =       0.23 minutes
Total time:
	user time   =     140.49 seconds =       2.34 minutes
	system time =       2.54 seconds =       0.04 minutes
	total time  =         14 seconds =       0.23 minutes


Properties will be evaluated at   0.000000,   0.000000,   0.000000 Bohr

Properties computed using the SCF density matrix

  Nuclear Dipole Moment: (a.u.)
     X:     0.0000      Y:    -0.0000      Z:     0.0000

  Electronic Dipole Moment: (a.u.)
     X:    -0.0000      Y:     0.0000      Z:    -0.0000

  Dipole Moment: (a.u.)
     X:     0.0000      Y:    -0.0000      Z:    -0.0000     Total:     0.0000

  Dipole Moment: (Debye)
     X:     0.0000      Y:    -0.0000      Z:    -0.0000     Total:     0.0000


  //>>>>>>>>>>>>>>>>>>>>>>>>>>>>>>>>>>>//
  //               DFMP2               //
  //<<<<<<<<<<<<<<<<<<<<<<<<<<<<<<<<<<<//


*** tstart() called on wr40
*** at Thu Sep 22 07:15:50 2016


*** tstop() called on wr40 at Thu Sep 22 07:15:50 2016
Module time:
	user time   =       2.55 seconds =       0.04 minutes
	system time =       0.09 seconds =       0.00 minutes
	total time  =          0 seconds =       0.00 minutes
Total time:
	user time   =     143.42 seconds =       2.39 minutes
	system time =       2.65 seconds =       0.04 minutes
	total time  =         14 seconds =       0.23 minutes
	 --------------------------------------------------------
	                          DF-MP2                         
	      2nd-Order Density-Fitted Moller-Plesset Theory     
	              RMP2 Wavefunction,  12 Threads             
	                                                         
	        Rob Parrish, Justin Turney, Andy Simmonett,      
	           Ed Hohenstein, and C. David Sherrill          
	 --------------------------------------------------------

   => Auxiliary Basis Set <=

  Basis Set: 
    Number of shells: 364
    Number of basis function: 1188
    Number of Cartesian functions: 1438
    Spherical Harmonics?: true
    Max angular momentum: 4

	 --------------------------------------------------------
	                 NBF =   492, NAUX =  1188
	 --------------------------------------------------------
	   CLASS    FOCC     OCC    AOCC    AVIR     VIR    FVIR
	   PAIRS       8      33      25     459     459       0
	 --------------------------------------------------------

	-----------------------------------------------------------
	 ==================> DF-MP2 Energies <==================== 
	-----------------------------------------------------------
	 Reference Energy          =    -313.5421764471237793 [Eh]
	 Singles Energy            =      -0.0000000000003524 [Eh]
	 Same-Spin Energy          =      -0.3117763137032752 [Eh]
	 Opposite-Spin Energy      =      -1.1059412548580125 [Eh]
	 Correlation Energy        =      -1.4177175685616401 [Eh]
	 Total Energy              =    -314.9598940156853928 [Eh]
	-----------------------------------------------------------
	 ================> DF-SCS-MP2 Energies <================== 
	-----------------------------------------------------------
	 SCS Same-Spin Scale       =       0.3333333333333333 [-]
	 SCS Opposite-Spin Scale   =       1.2000000000000000 [-]
	 SCS Same-Spin Energy      =      -0.1039254379010917 [Eh]
	 SCS Opposite-Spin Energy  =      -1.3271295058296151 [Eh]
	 SCS Correlation Energy    =      -1.4310549437310591 [Eh]
	 SCS Total Energy          =    -314.9732313908548349 [Eh]
	-----------------------------------------------------------


  //>>>>>>>>>>>>>>>>>>>>>>>>>>>>>>>>>>>//
  //   CBS Computation: MP2 / CC-PVQZ  //
  //<<<<<<<<<<<<<<<<<<<<<<<<<<<<<<<<<<<//

    SCF Algorithm Type (re)set to DF.

*** tstart() called on wr40
*** at Thu Sep 22 07:15:59 2016


         ---------------------------------------------------------
                                   SCF
            by Justin Turney, Rob Parrish, and Andy Simmonett
                              RHF Reference
                       12 Threads,  60000 MiB Core
         ---------------------------------------------------------

  ==> Geometry <==

    Molecular point group: c1
    Full point group: C1

    Geometry (in Angstrom), charge = 0, multiplicity = 1:

       Center              X                  Y                   Z               Mass       
    ------------   -----------------  -----------------  -----------------  -----------------
           C          4.173290238529    -0.117235264765     0.126180169825    12.000000000000
           H          4.543416564889     0.784290329623    -0.363602285635     1.007825032070
           H          4.827023570646    -0.943459426696    -0.152137838390     1.007825032070
           H          4.260725833460     0.031188931823     1.203288571817     1.007825032070
           C         -4.173290438737     0.117234913726    -0.126178590694    12.000000000000
           H         -4.260724703787    -0.031179590246    -1.203288427133     1.007825032070
           H         -4.827024806183     0.943455978423     0.152146199994     1.007825032070
           H         -4.543416485120    -0.784295471068     0.363595290428     1.007825032070
           C          2.725246783732    -0.388768845052    -0.263932376801    12.000000000000
           H          2.390688605550    -1.313018405727     0.210506161305     1.007825032070
           H          2.656778673307    -0.549551262404    -1.343743910215     1.007825032070
           C         -2.725247628694     0.388766356227     0.263938265035    12.000000000000
           H         -2.390689652741     1.313020313639    -0.210491923954     1.007825032070
           H         -2.656780703302     0.549539543456     1.343751270618     1.007825032070
           C          1.803507217674     0.761668645664     0.125719510490    12.000000000000
           H          2.204577468263     1.686497095888    -0.299470199954     1.007825032070
           H          1.826041128868     0.887446104753     1.213353202296     1.007825032070
           C          0.356519015698     0.587352288033    -0.331187879701    12.000000000000
           H          0.335053686487     0.451491214456    -1.418017364793     1.007825032070
           H         -0.190736325304     1.508942330598    -0.122273237776     1.007825032070
           C         -0.356518364768    -0.587351139653     0.331183613652    12.000000000000
           H          0.190736601918    -1.508941287620     0.122267502810     1.007825032070
           H         -0.335052262898    -0.451490688566     1.418013326764     1.007825032070
           C         -1.803506831569    -0.761666941445    -0.125722736217    12.000000000000
           H         -1.826042046891    -0.887436886439    -1.213357262929     1.007825032070
           H         -2.204575050292    -1.686498975553     0.299461215412     1.007825032070

  Running in c1 symmetry.

  Rotational constants: A =      0.25992  B =      0.01950  C =      0.01893 [cm^-1]
  Rotational constants: A =   7792.09500  B =    584.69868  C =    567.40534 [MHz]
  Nuclear repulsion =  385.127983023872844

  Charge       = 0
  Multiplicity = 1
  Electrons    = 66
  Nalpha       = 33
  Nbeta        = 33

  ==> Algorithm <==

  SCF Algorithm Type is DF.
  DIIS enabled.
  MOM disabled.
  Fractional occupation disabled.
  Guess Type is SAD.
  Energy threshold   = 1.00e-08
  Density threshold  = 1.00e-08
  Integral threshold = 0.00e+00

  ==> Primary Basis <==

  Basis Set: CC-PVQZ
    Number of shells: 300
    Number of basis function: 980
    Number of Cartesian functions: 1190
    Spherical Harmonics?: true
    Max angular momentum: 4

  ==> Pre-Iterations <==

   -------------------------------------------------------
    Irrep   Nso     Nmo     Nalpha   Nbeta   Ndocc  Nsocc
   -------------------------------------------------------
     A        980     980       0       0       0       0
   -------------------------------------------------------
    Total     980     980      33      33      33       0
   -------------------------------------------------------

  ==> Integral Setup <==

  ==> DFJK: Density-Fitted J/K Matrices <==

    J tasked:                  Yes
    K tasked:                  Yes
    wK tasked:                  No
    OpenMP threads:             12
    Integrals threads:          12
    Memory (MB):             42915
    Algorithm:                Core
    Integral Cache:           NONE
    Schwarz Cutoff:          1E-12
    Fitting Condition:       1E-12

   => Auxiliary Basis Set <=

  Basis Set: 
    Number of shells: 458
    Number of basis function: 1766
    Number of Cartesian functions: 2324
    Spherical Harmonics?: true
    Max angular momentum: 5

  Minimum eigenvalue in the overlap matrix is 4.7248537593E-05.
  Using Symmetric Orthogonalization.
  SCF Guess: Superposition of Atomic Densities via on-the-fly atomic UHF.

  ==> Iterations <==

                           Total Energy        Delta E     RMS |[F,P]|

   @DF-RHF iter   0:  -317.33876522790547   -3.17339e+02   5.79172e-03 
   @DF-RHF iter   1:  -313.37579593766225    3.96297e+00   4.59280e-04 
   @DF-RHF iter   2:  -313.54193747753584   -1.66142e-01   1.38644e-04 DIIS
   @DF-RHF iter   3:  -313.56069737560608   -1.87599e-02   4.00290e-05 DIIS
   @DF-RHF iter   4:  -313.56184106051876   -1.14368e-03   1.09366e-05 DIIS
   @DF-RHF iter   5:  -313.56194150232704   -1.00442e-04   2.37767e-06 DIIS
   @DF-RHF iter   6:  -313.56194682036983   -5.31804e-06   4.83118e-07 DIIS
   @DF-RHF iter   7:  -313.56194701475761   -1.94388e-07   1.49149e-07 DIIS
   @DF-RHF iter   8:  -313.56194703061999   -1.58624e-08   2.55283e-08 DIIS
   @DF-RHF iter   9:  -313.56194703132553   -7.05541e-10   5.87662e-09 DIIS

  ==> Post-Iterations <==

    Orbital Energies (a.u.)
    -----------------------

    Doubly Occupied:                                                      

       1A    -11.210712     2A    -11.210712     3A    -11.209436  
       4A    -11.209341     5A    -11.208778     6A    -11.208247  
       7A    -11.205818     8A    -11.205818     9A     -1.093559  
      10A     -1.060686    11A     -1.009559    12A     -0.949960  
      13A     -0.873659    14A     -0.831998    15A     -0.790583  
      16A     -0.762142    17A     -0.633719    18A     -0.633334  
      19A     -0.617433    20A     -0.591746    21A     -0.578730  
      22A     -0.553921    23A     -0.545378    24A     -0.541186  
      25A     -0.510722    26A     -0.503816    27A     -0.478688  
      28A     -0.477226    29A     -0.468692    30A     -0.458287  
      31A     -0.454232    32A     -0.439089    33A     -0.433151  

    Virtual:                                                              

      34A      0.116546    35A      0.120407    36A      0.130383  
      37A      0.131917    38A      0.140424    39A      0.159753  
      40A      0.166809    41A      0.172378    42A      0.178665  
      43A      0.192576    44A      0.194591    45A      0.199270  
      46A      0.211443    47A      0.216993    48A      0.223559  
      49A      0.233682    50A      0.240214    51A      0.246902  
      52A      0.267899    53A      0.275923    54A      0.281872  
      55A      0.291802    56A      0.297052    57A      0.310496  
      58A      0.323573    59A      0.335963    60A      0.339067  
      61A      0.345740    62A      0.347563    63A      0.364452  
      64A      0.372456    65A      0.395311    66A      0.404150  
      67A      0.419162    68A      0.421802    69A      0.427135  
      70A      0.434386    71A      0.447128    72A      0.448190  
      73A      0.451582    74A      0.461344    75A      0.469472  
      76A      0.479708    77A      0.479808    78A      0.493115  
      79A      0.509102    80A      0.510056    81A      0.517496  
      82A      0.523559    83A      0.525665    84A      0.532319  
      85A      0.532324    86A      0.536550    87A      0.543578  
      88A      0.547575    89A      0.553359    90A      0.561027  
      91A      0.563578    92A      0.570688    93A      0.588872  
      94A      0.594225    95A      0.598671    96A      0.604471  
      97A      0.621479    98A      0.623307    99A      0.648491  
     100A      0.651511   101A      0.687672   102A      0.697076  
     103A      0.709706   104A      0.726945   105A      0.734451  
     106A      0.742445   107A      0.756706   108A      0.761040  
     109A      0.774340   110A      0.782063   111A      0.787690  
     112A      0.793301   113A      0.797306   114A      0.820084  
     115A      0.829271   116A      0.838276   117A      0.844034  
     118A      0.844749   119A      0.856914   120A      0.865931  
     121A      0.875067   122A      0.882486   123A      0.892762  
     124A      0.895356   125A      0.898617   126A      0.916874  
     127A      0.926575   128A      0.939019   129A      0.939590  
     130A      0.946048   131A      0.951334   132A      0.963103  
     133A      0.967175   134A      0.972436   135A      0.979530  
     136A      0.988583   137A      1.005576   138A      1.013335  
     139A      1.014044   140A      1.027384   141A      1.040221  
     142A      1.041997   143A      1.058101   144A      1.059763  
     145A      1.066728   146A      1.067768   147A      1.070262  
     148A      1.073974   149A      1.075926   150A      1.084611  
     151A      1.100011   152A      1.102346   153A      1.109950  
     154A      1.127213   155A      1.128043   156A      1.131300  
     157A      1.137606   158A      1.147473   159A      1.152239  
     160A      1.153532   161A      1.164244   162A      1.167406  
     163A      1.168949   164A      1.174721   165A      1.176014  
     166A      1.186228   167A      1.187805   168A      1.194782  
     169A      1.197988   170A      1.202223   171A      1.209877  
     172A      1.210493   173A      1.215404   174A      1.230675  
     175A      1.235496   176A      1.242260   177A      1.246820  
     178A      1.265479   179A      1.271756   180A      1.272204  
     181A      1.284146   182A      1.289859   183A      1.300023  
     184A      1.319365   185A      1.331977   186A      1.337767  
     187A      1.356128   188A      1.358918   189A      1.382307  
     190A      1.386122   191A      1.391059   192A      1.410370  
     193A      1.427489   194A      1.442412   195A      1.464713  
     196A      1.485661   197A      1.494644   198A      1.494820  
     199A      1.505178   200A      1.531984   201A      1.583795  
     202A      1.628980   203A      1.658988   204A      1.664486  
     205A      1.672431   206A      1.702873   207A      1.704855  
     208A      1.713743   209A      1.726287   210A      1.735310  
     211A      1.761074   212A      1.779880   213A      1.790693  
     214A      1.808743   215A      1.813127   216A      1.823940  
     217A      1.835747   218A      1.857345   219A      1.861096  
     220A      1.875020   221A      1.888512   222A      1.900936  
     223A      1.902928   224A      1.937238   225A      1.955344  
     226A      1.956741   227A      1.979952   228A      1.983366  
     229A      2.004769   230A      2.017798   231A      2.021923  
     232A      2.030009   233A      2.035896   234A      2.051482  
     235A      2.053068   236A      2.057792   237A      2.060259  
     238A      2.071489   239A      2.075321   240A      2.081606  
     241A      2.092988   242A      2.102349   243A      2.112922  
     244A      2.118292   245A      2.119123   246A      2.129749  
     247A      2.139503   248A      2.148988   249A      2.152162  
     250A      2.157945   251A      2.158107   252A      2.166015  
     253A      2.179431   254A      2.184493   255A      2.200258  
     256A      2.216068   257A      2.218149   258A      2.223621  
     259A      2.225072   260A      2.238260   261A      2.250430  
     262A      2.254397   263A      2.258860   264A      2.259224  
     265A      2.265942   266A      2.272492   267A      2.280520  
     268A      2.286756   269A      2.293431   270A      2.296874  
     271A      2.298794   272A      2.317075   273A      2.317826  
     274A      2.328142   275A      2.332205   276A      2.342956  
     277A      2.349132   278A      2.353384   279A      2.359254  
     280A      2.367320   281A      2.369697   282A      2.380983  
     283A      2.388259   284A      2.392793   285A      2.393318  
     286A      2.406202   287A      2.407082   288A      2.413019  
     289A      2.418896   290A      2.424607   291A      2.472430  
     292A      2.476527   293A      2.484459   294A      2.489084  
     295A      2.500571   296A      2.509906   297A      2.519541  
     298A      2.529491   299A      2.535106   300A      2.544266  
     301A      2.558739   302A      2.558954   303A      2.566994  
     304A      2.575866   305A      2.590104   306A      2.597416  
     307A      2.609358   308A      2.620462   309A      2.620634  
     310A      2.638772   311A      2.645228   312A      2.670882  
     313A      2.678157   314A      2.687278   315A      2.706748  
     316A      2.710392   317A      2.732081   318A      2.734060  
     319A      2.743708   320A      2.749249   321A      2.761454  
     322A      2.762351   323A      2.769742   324A      2.773171  
     325A      2.777901   326A      2.792621   327A      2.793062  
     328A      2.810888   329A      2.814510   330A      2.820275  
     331A      2.823580   332A      2.827255   333A      2.845822  
     334A      2.855765   335A      2.860538   336A      2.860872  
     337A      2.876862   338A      2.883379   339A      2.891395  
     340A      2.894635   341A      2.907361   342A      2.914418  
     343A      2.922688   344A      2.923183   345A      2.934040  
     346A      2.942950   347A      2.946891   348A      2.969112  
     349A      2.969339   350A      2.975584   351A      2.990791  
     352A      2.993231   353A      2.998340   354A      3.008567  
     355A      3.027458   356A      3.028448   357A      3.038651  
     358A      3.059453   359A      3.074586   360A      3.078188  
     361A      3.093342   362A      3.107138   363A      3.113725  
     364A      3.131665   365A      3.149460   366A      3.151312  
     367A      3.152060   368A      3.161560   369A      3.168693  
     370A      3.169353   371A      3.174163   372A      3.196287  
     373A      3.202589   374A      3.209500   375A      3.230313  
     376A      3.244916   377A      3.250980   378A      3.257706  
     379A      3.268076   380A      3.275457   381A      3.300420  
     382A      3.302091   383A      3.323922   384A      3.331229  
     385A      3.334364   386A      3.334605   387A      3.342302  
     388A      3.344677   389A      3.354997   390A      3.369056  
     391A      3.379623   392A      3.385097   393A      3.400413  
     394A      3.409988   395A      3.423751   396A      3.427093  
     397A      3.436718   398A      3.443414   399A      3.454326  
     400A      3.466339   401A      3.478838   402A      3.483347  
     403A      3.487719   404A      3.487828   405A      3.498759  
     406A      3.514629   407A      3.526256   408A      3.542253  
     409A      3.549293   410A      3.560859   411A      3.567757  
     412A      3.576786   413A      3.592671   414A      3.595622  
     415A      3.598793   416A      3.642013   417A      3.650458  
     418A      3.653654   419A      3.661197   420A      3.678706  
     421A      3.707342   422A      3.723545   423A      3.729062  
     424A      3.749370   425A      3.749412   426A      3.754826  
     427A      3.786573   428A      3.793278   429A      3.800037  
     430A      3.827062   431A      3.827250   432A      3.834353  
     433A      3.862022   434A      3.862785   435A      3.875607  
     436A      3.888953   437A      3.891977   438A      3.906461  
     439A      3.909242   440A      3.927254   441A      3.944066  
     442A      3.944826   443A      3.945640   444A      3.952011  
     445A      3.976587   446A      3.983260   447A      4.013247  
     448A      4.025866   449A      4.034269   450A      4.039931  
     451A      4.055561   452A      4.081445   453A      4.086276  
     454A      4.101639   455A      4.116255   456A      4.142198  
     457A      4.142733   458A      4.175579   459A      4.196347  
     460A      4.203366   461A      4.205640   462A      4.210212  
     463A      4.215991   464A      4.221561   465A      4.236397  
     466A      4.243258   467A      4.254023   468A      4.263670  
     469A      4.278327   470A      4.288815   471A      4.296134  
     472A      4.305144   473A      4.307797   474A      4.311613  
     475A      4.327210   476A      4.342654   477A      4.344171  
     478A      4.355873   479A      4.368368   480A      4.388756  
     481A      4.398626   482A      4.412497   483A      4.442502  
     484A      4.457660   485A      4.492916   486A      4.500227  
     487A      4.507141   488A      4.550167   489A      4.551610  
     490A      4.585697   491A      4.633539   492A      4.651520  
     493A      5.315086   494A      5.316347   495A      5.385862  
     496A      5.387562   497A      5.446736   498A      5.456915  
     499A      5.468736   500A      5.553878   501A      5.559397  
     502A      5.582594   503A      5.628779   504A      5.632583  
     505A      5.682490   506A      5.697042   507A      5.703624  
     508A      5.705066   509A      5.720078   510A      5.740221  
     511A      5.744906   512A      5.760867   513A      5.771699  
     514A      5.775804   515A      5.776436   516A      5.783752  
     517A      5.805449   518A      5.806850   519A      5.821461  
     520A      5.826137   521A      5.828649   522A      5.849777  
     523A      5.863418   524A      5.874815   525A      5.875865  
     526A      5.901830   527A      5.916171   528A      5.931364  
     529A      5.949132   530A      5.983657   531A      5.987354  
     532A      5.989787   533A      6.011838   534A      6.027625  
     535A      6.027964   536A      6.049487   537A      6.056519  
     538A      6.086803   539A      6.094363   540A      6.102236  
     541A      6.137698   542A      6.149537   543A      6.155180  
     544A      6.163298   545A      6.165236   546A      6.168429  
     547A      6.177813   548A      6.185459   549A      6.214526  
     550A      6.219273   551A      6.231254   552A      6.232417  
     553A      6.238801   554A      6.244260   555A      6.249050  
     556A      6.251015   557A      6.256083   558A      6.265806  
     559A      6.273259   560A      6.276493   561A      6.280127  
     562A      6.290851   563A      6.294689   564A      6.301089  
     565A      6.314934   566A      6.318488   567A      6.332299  
     568A      6.339363   569A      6.363691   570A      6.364428  
     571A      6.368311   572A      6.380686   573A      6.387197  
     574A      6.408430   575A      6.412425   576A      6.416331  
     577A      6.421446   578A      6.435493   579A      6.448465  
     580A      6.448804   581A      6.453190   582A      6.473510  
     583A      6.473917   584A      6.485047   585A      6.499429  
     586A      6.504477   587A      6.517665   588A      6.533692  
     589A      6.534034   590A      6.542376   591A      6.550739  
     592A      6.550787   593A      6.556638   594A      6.559826  
     595A      6.562197   596A      6.578645   597A      6.583539  
     598A      6.596113   599A      6.605320   600A      6.618630  
     601A      6.623100   602A      6.628422   603A      6.637844  
     604A      6.637929   605A      6.642629   606A      6.643822  
     607A      6.644281   608A      6.656054   609A      6.667290  
     610A      6.681207   611A      6.682133   612A      6.699283  
     613A      6.703187   614A      6.708042   615A      6.717383  
     616A      6.732621   617A      6.734689   618A      6.737739  
     619A      6.743362   620A      6.752111   621A      6.760297  
     622A      6.760394   623A      6.769072   624A      6.784436  
     625A      6.786930   626A      6.796532   627A      6.806660  
     628A      6.809851   629A      6.818923   630A      6.825189  
     631A      6.834176   632A      6.847343   633A      6.876144  
     634A      6.884005   635A      6.887976   636A      6.891358  
     637A      6.903107   638A      6.913415   639A      6.930071  
     640A      6.930217   641A      6.948688   642A      6.956646  
     643A      6.975811   644A      6.983448   645A      6.985127  
     646A      6.997408   647A      7.004864   648A      7.040716  
     649A      7.041466   650A      7.050459   651A      7.069382  
     652A      7.071150   653A      7.073029   654A      7.091996  
     655A      7.114543   656A      7.126265   657A      7.152996  
     658A      7.160099   659A      7.173197   660A      7.181121  
     661A      7.202310   662A      7.212833   663A      7.220421  
     664A      7.242130   665A      7.244739   666A      7.263977  
     667A      7.267390   668A      7.275006   669A      7.277470  
     670A      7.291393   671A      7.312436   672A      7.344841  
     673A      7.367676   674A      7.368596   675A      7.382326  
     676A      7.387460   677A      7.401837   678A      7.402561  
     679A      7.414470   680A      7.436259   681A      7.442773  
     682A      7.454750   683A      7.459240   684A      7.472577  
     685A      7.481830   686A      7.486920   687A      7.491870  
     688A      7.503454   689A      7.524533   690A      7.541429  
     691A      7.547747   692A      7.595244   693A      7.600334  
     694A      7.649093   695A      7.651142   696A      7.666696  
     697A      7.686175   698A      7.701697   699A      7.703815  
     700A      7.709670   701A      7.710536   702A      7.730478  
     703A      7.733520   704A      7.741536   705A      7.749469  
     706A      7.764919   707A      7.765851   708A      7.778831  
     709A      7.818458   710A      7.827780   711A      7.849685  
     712A      7.855246   713A      7.870032   714A      7.880515  
     715A      7.886703   716A      7.891595   717A      7.903831  
     718A      7.907315   719A      7.937903   720A      7.943937  
     721A      7.949435   722A      7.957239   723A      7.972146  
     724A      7.974655   725A      7.988787   726A      8.001287  
     727A      8.008252   728A      8.014763   729A      8.022695  
     730A      8.027603   731A      8.032012   732A      8.041640  
     733A      8.044697   734A      8.047610   735A      8.068233  
     736A      8.071140   737A      8.073320   738A      8.083190  
     739A      8.102895   740A      8.107689   741A      8.118720  
     742A      8.132154   743A      8.143803   744A      8.155356  
     745A      8.168548   746A      8.175630   747A      8.194506  
     748A      8.202299   749A      8.224674   750A      8.230180  
     751A      8.232065   752A      8.243930   753A      8.261524  
     754A      8.265474   755A      8.272092   756A      8.278145  
     757A      8.283067   758A      8.284019   759A      8.288882  
     760A      8.292936   761A      8.316235   762A      8.323001  
     763A      8.328074   764A      8.334334   765A      8.343832  
     766A      8.357447   767A      8.365037   768A      8.367914  
     769A      8.371510   770A      8.373452   771A      8.387666  
     772A      8.405240   773A      8.428591   774A      8.431760  
     775A      8.449206   776A      8.456098   777A      8.462354  
     778A      8.469799   779A      8.480784   780A      8.485008  
     781A      8.485487   782A      8.497007   783A      8.502911  
     784A      8.514753   785A      8.532431   786A      8.540314  
     787A      8.552845   788A      8.554088   789A      8.573142  
     790A      8.575281   791A      8.603342   792A      8.608263  
     793A      8.646446   794A      8.648758   795A      8.651963  
     796A      8.656684   797A      8.694592   798A      8.699184  
     799A      8.703693   800A      8.730679   801A      8.742676  
     802A      8.768894   803A      8.778517   804A      8.789997  
     805A      8.795685   806A      8.803553   807A      8.810271  
     808A      8.813512   809A      8.817367   810A      8.825636  
     811A      8.830057   812A      8.848735   813A      8.856629  
     814A      8.867633   815A      8.868831   816A      8.875707  
     817A      8.879698   818A      8.887867   819A      8.904358  
     820A      8.925319   821A      8.932753   822A      8.944528  
     823A      8.960571   824A      8.962706   825A      8.985571  
     826A      8.987901   827A      9.004388   828A      9.008758  
     829A      9.040813   830A      9.046180   831A      9.046972  
     832A      9.062860   833A      9.068508   834A      9.072160  
     835A      9.098756   836A      9.120278   837A      9.125143  
     838A      9.151617   839A      9.154705   840A      9.155047  
     841A      9.173856   842A      9.178070   843A      9.192924  
     844A      9.200689   845A      9.213781   846A      9.217792  
     847A      9.241236   848A      9.250081   849A      9.252431  
     850A      9.263005   851A      9.280641   852A      9.289844  
     853A      9.310893   854A      9.325253   855A      9.326648  
     856A      9.335305   857A      9.343100   858A      9.349110  
     859A      9.350454   860A      9.367144   861A      9.382454  
     862A      9.389331   863A      9.393172   864A      9.410372  
     865A      9.411483   866A      9.414710   867A      9.434238  
     868A      9.450542   869A      9.453995   870A      9.472405  
     871A      9.481183   872A      9.493626   873A      9.502679  
     874A      9.503682   875A      9.505185   876A      9.521910  
     877A      9.539096   878A      9.555394   879A      9.559201  
     880A      9.565997   881A      9.568932   882A      9.582020  
     883A      9.587518   884A      9.598161   885A      9.612230  
     886A      9.613035   887A      9.634240   888A      9.657503  
     889A      9.673967   890A      9.693183   891A      9.711545  
     892A      9.712160   893A      9.728384   894A      9.738226  
     895A      9.745992   896A      9.776220   897A      9.815254  
     898A      9.823548   899A      9.850612   900A      9.917854  
     901A     10.198766   902A     10.199205   903A     10.207462  
     904A     10.210769   905A     10.242676   906A     10.243372  
     907A     10.245492   908A     10.257193   909A     10.282826  
     910A     10.295122   911A     10.306940   912A     10.363038  
     913A     10.421762   914A     10.432732   915A     10.479367  
     916A     10.486980   917A     10.489455   918A     10.522233  
     919A     10.556600   920A     10.565276   921A     10.574296  
     922A     10.590291   923A     10.603380   924A     10.617635  
     925A     10.633373   926A     10.644543   927A     10.664593  
     928A     10.665112   929A     10.680006   930A     10.691259  
     931A     10.711354   932A     10.722431   933A     10.736293  
     934A     10.751146   935A     10.755029   936A     10.772188  
     937A     10.803610   938A     10.806701   939A     10.828573  
     940A     10.836501   941A     10.854204   942A     10.868107  
     943A     10.873170   944A     10.886260   945A     10.886768  
     946A     10.906002   947A     10.907465   948A     10.925012  
     949A     10.981389   950A     11.032890   951A     11.061713  
     952A     11.076951   953A     11.126702   954A     11.138046  
     955A     11.776877   956A     11.779121   957A     12.120361  
     958A     12.148278   959A     12.161798   960A     12.351196  
     961A     12.464636   962A     12.545171   963A     12.854762  
     964A     12.863348   965A     12.920382   966A     12.940088  
     967A     12.957789   968A     12.964638   969A     12.975803  
     970A     13.054599   971A     13.068811   972A     13.087368  
     973A     26.668929   974A     26.677880   975A     26.692812  
     976A     26.806687   977A     26.936527   978A     27.137082  
     979A     27.352518   980A     27.370373  

    Final Occupation by Irrep:
              A 
    DOCC [    33 ]

  Energy converged.

  @DF-RHF Final Energy:  -313.56194703132553

   => Energetics <=

    Nuclear Repulsion Energy =            385.1279830238728437
    One-Electron Energy =               -1185.4591444424718247
    Two-Electron Energy =                 486.7692143872735642
    DFT Exchange-Correlation Energy =       0.0000000000000000
    Empirical Dispersion Energy =           0.0000000000000000
    PCM Polarization Energy =               0.0000000000000000
    EFP Energy =                            0.0000000000000000
    Total Energy =                       -313.5619470313254169


  Saving occupied orbitals to File 180.

*** tstop() called on wr40 at Thu Sep 22 07:16:59 2016
Module time:
	user time   =     599.65 seconds =       9.99 minutes
	system time =       7.22 seconds =       0.12 minutes
	total time  =         60 seconds =       1.00 minutes
Total time:
	user time   =     802.26 seconds =      13.37 minutes
	system time =      12.38 seconds =       0.21 minutes
	total time  =         83 seconds =       1.38 minutes


Properties will be evaluated at   0.000000,   0.000000,   0.000000 Bohr

Properties computed using the SCF density matrix

  Nuclear Dipole Moment: (a.u.)
     X:     0.0000      Y:    -0.0000      Z:     0.0000

  Electronic Dipole Moment: (a.u.)
     X:    -0.0000      Y:     0.0000      Z:    -0.0000

  Dipole Moment: (a.u.)
     X:     0.0000      Y:    -0.0000      Z:    -0.0000     Total:     0.0000

  Dipole Moment: (Debye)
     X:     0.0000      Y:    -0.0000      Z:    -0.0000     Total:     0.0000


  //>>>>>>>>>>>>>>>>>>>>>>>>>>>>>>>>>>>//
  //               DFMP2               //
  //<<<<<<<<<<<<<<<<<<<<<<<<<<<<<<<<<<<//


*** tstart() called on wr40
*** at Thu Sep 22 07:16:59 2016


*** tstop() called on wr40 at Thu Sep 22 07:16:59 2016
Module time:
	user time   =       3.17 seconds =       0.05 minutes
	system time =       0.08 seconds =       0.00 minutes
	total time  =          0 seconds =       0.00 minutes
Total time:
	user time   =     805.56 seconds =      13.43 minutes
	system time =      12.46 seconds =       0.21 minutes
	total time  =         83 seconds =       1.38 minutes
	 --------------------------------------------------------
	                          DF-MP2                         
	      2nd-Order Density-Fitted Moller-Plesset Theory     
	              RMP2 Wavefunction,  12 Threads             
	                                                         
	        Rob Parrish, Justin Turney, Andy Simmonett,      
	           Ed Hohenstein, and C. David Sherrill          
	 --------------------------------------------------------

   => Auxiliary Basis Set <=

  Basis Set: 
    Number of shells: 510
    Number of basis function: 2046
    Number of Cartesian functions: 2708
    Spherical Harmonics?: true
    Max angular momentum: 5

	 --------------------------------------------------------
	                 NBF =   980, NAUX =  2046
	 --------------------------------------------------------
	   CLASS    FOCC     OCC    AOCC    AVIR     VIR    FVIR
	   PAIRS       8      33      25     947     947       0
	 --------------------------------------------------------

	-----------------------------------------------------------
	 ==================> DF-MP2 Energies <==================== 
	-----------------------------------------------------------
	 Reference Energy          =    -313.5619470313255306 [Eh]
	 Singles Energy            =      -0.0000000000021893 [Eh]
	 Same-Spin Energy          =      -0.3220042835464382 [Eh]
	 Opposite-Spin Energy      =      -1.1818036222756092 [Eh]
	 Correlation Energy        =      -1.5038079058242366 [Eh]
	 Total Energy              =    -315.0657549371497907 [Eh]
	-----------------------------------------------------------
	 ================> DF-SCS-MP2 Energies <================== 
	-----------------------------------------------------------
	 SCS Same-Spin Scale       =       0.3333333333333333 [-]
	 SCS Opposite-Spin Scale   =       1.2000000000000000 [-]
	 SCS Same-Spin Energy      =      -0.1073347611821460 [Eh]
	 SCS Opposite-Spin Energy  =      -1.4181643467307310 [Eh]
	 SCS Correlation Energy    =      -1.5254991079150664 [Eh]
	 SCS Total Energy          =    -315.0874461392405692 [Eh]
	-----------------------------------------------------------


  //>>>>>>>>>>>>>>>>>>>>>>>>>>>>>>>>>>>//
  //    CBS Results: custom function   //
  //<<<<<<<<<<<<<<<<<<<<<<<<<<<<<<<<<<<//


   ==> Helgaker 2-point SCF extrapolation for method: HF <==

   LO-zeta (3) Energy:               -313.542176447124
   HI-zeta (4) Energy:               -313.561947031325
   Alpha (exponent) Value:             1.630000000000
   Beta (coefficient) Value:           3.269079108124

   @Extrapolated HF/(T,Q):          -313.566764572200



   ==> Helgaker 2-point correlated extrapolation for method: MP2 <==

   LO-zeta (3) Energy:               -314.959894015685
   HI-zeta (4) Energy:               -315.065754937150
   Extrapolated Energy:              -315.143004798759

   @Extrapolated MP2/(T,Q):          -315.143004798759



   ==> Helgaker 2-point correlated extrapolation for method: HF <==

   LO-zeta (3) Energy:               -313.542176447124
   HI-zeta (4) Energy:               -313.561947031325
   Extrapolated Energy:              -313.576374214391

   @Extrapolated HF/(T,Q):           -313.576374214391


   ==> Components <==

  ---------------------------------------------------------------------------------------------------------
                          Method / Basis                      Rqd      Energy [Eh]   Variable
  ---------------------------------------------------------------------------------------------------------
                             mp2 / cc-pvtz                      *    -314.95989402   MP2 TOTAL ENERGY
                              hf / cc-pvtz                      *    -313.54217645   HF TOTAL ENERGY
                             mp2 / cc-pvqz                      *    -315.06575494   MP2 TOTAL ENERGY
                              hf / cc-pvqz                      *    -313.56194703   HF TOTAL ENERGY
  ---------------------------------------------------------------------------------------------------------

   ==> Stages <==

  ---------------------------------------------------------------------------------------------------------
      Stage               Method / Basis                       Wt      Energy [Eh]   Scheme
  ---------------------------------------------------------------------------------------------------------
        scf                   hf / cc-pv[tq]z                   1    -313.56676457   scf_xtpl_helgaker_2
       corl                  mp2 / cc-pv[tq]z                   1    -315.14300480   corl_xtpl_helgaker_2
       corl                   hf / cc-pv[tq]z                  -1    -313.57637421   corl_xtpl_helgaker_2
  ---------------------------------------------------------------------------------------------------------

   ==> CBS <==

  ---------------------------------------------------------------------------------------------------------
      Stage               Method / Basis                               Energy [Eh]   Scheme
  ---------------------------------------------------------------------------------------------------------
        scf                   hf / cc-pv[tq]z                        -313.56676457   scf_xtpl_helgaker_2
       corl                  mp2 / cc-pv[tq]z                          -1.56663058   corl_xtpl_helgaker_2
      total                  CBS                                     -315.13339516   
  ---------------------------------------------------------------------------------------------------------

*** Psi4 exiting successfully. Buy a developer a beer!
