    -----------------------------------------------------------------------
          Psi4: An Open-Source Ab Initio Electronic Structure Package
                              Psi4 1.0.0 Driver

                          Git: Rev {master} 6a9a71b dirty

    J. M. Turney, A. C. Simmonett, R. M. Parrish, E. G. Hohenstein,
    F. A. Evangelista, J. T. Fermann, B. J. Mintz, L. A. Burns, J. J. Wilke,
    M. L. Abrams, N. J. Russ, M. L. Leininger, C. L. Janssen, E. T. Seidl,
    W. D. Allen, H. F. Schaefer, R. A. King, E. F. Valeev, C. D. Sherrill,
    and T. D. Crawford, WIREs Comput. Mol. Sci. 2, 556-565 (2012)
    (doi: 10.1002/wcms.93)

                         Additional Contributions by
    A. E. DePrince, U. Bozkaya, A. Yu. Sokolov, D. G. A. Smith, R. Di Remigio,
    R. M. Richard, J. F. Gonthier, H. R. McAlexander, M. Saitow, and
    B. P. Pritchard
    -----------------------------------------------------------------------


    Psi4 started on: Thu Sep 22 07:15:35 2016

    Process ID:  25979
    PSI4DATADIR: /usr/local/hpc5/psi4conda/share/psi4
    Memory level set to 256.000 MB

  ==> Input File <==

--------------------------------------------------------------------------
memory 60 Gb

molecule molecule_08_psi {
0 1
    C            3.501552120309     0.741730541303     0.121004586240
    H            3.160866879194     1.739176804326     0.402295927168
    H            4.252160691280     0.852460392640    -0.661202334329
    H            3.986251571990     0.299388339954     0.992224876471
    C           -3.312882768088    -0.001834640952     0.420115319232
    H           -3.021804059632    -1.042389644893     0.562507410396
    H           -3.880641450967     0.060225209706    -0.509923920239
    H           -3.979681033624     0.269075325649     1.238364556682
    C            2.329648634031    -0.116503385443    -0.339735231797
    H            2.687713178253    -1.107583607785    -0.633348000346
    H            1.883285787527     0.328607948869    -1.231692169180
    C           -2.097477577630     0.917593477858     0.372318998849
    H           -2.432217459164     1.956604964794     0.333201028463
    H           -1.526057303990     0.816374444624     1.298052285972
    C            1.271530637922    -0.269408118843     0.746660434884
    H            0.881167374458     0.719337545654     1.005667388544
    H            1.750483641911    -0.653074110998     1.652385089609
    C            0.123632409266    -1.201421630135     0.362186165053
    H           -0.571461352248    -1.278198196549     1.202490125462
    H            0.523420909008    -2.207387862231     0.204621193299
    C           -0.638295132379    -0.773692921014    -0.892988593935
    H            0.015291300111    -0.858685588182    -1.764235538964
    H           -1.456960998559    -1.476458116323    -1.064851536593
    C           -1.190882477139     0.650512377085    -0.828532961443
    H           -0.361902976772     1.363214138292    -0.817037621346
    H           -1.753052307529     0.850663270305    -1.745494371783
}

set globals {
  reference rhf
  freeze_core true
}
energy(cbs, corl_wfn='mp2', corl_basis='cc-pv[tq]z', scf_basis='cc-pv[tq]z', corl_scheme=corl_xtpl_helgaker_2, scf_scheme=scf_xtpl_helgaker_2)
--------------------------------------------------------------------------
/usr/local/hpc5/psi4conda/lib/python2.7/site-packages/v2rdm_casscf/v2rdm_casscf.so loaded.

  Memory set to  60.000 GiB by Python script.

  //>>>>>>>>>>>>>>>>>>>>>>>>>>>>>>>>>>>//
  //     CBS Setup: custom function    //
  //<<<<<<<<<<<<<<<<<<<<<<<<<<<<<<<<<<<//

    Naive listing of computations required.
             hf / cc-pvtz                  for  HF TOTAL ENERGY
             hf / cc-pvqz                  for  HF TOTAL ENERGY
            mp2 / cc-pvtz                  for  MP2 TOTAL ENERGY
            mp2 / cc-pvqz                  for  MP2 TOTAL ENERGY
             hf / cc-pvtz                  for  HF TOTAL ENERGY
             hf / cc-pvqz                  for  HF TOTAL ENERGY

    Enlightened listing of computations required.
            mp2 / cc-pvtz                  for  MP2 TOTAL ENERGY
            mp2 / cc-pvqz                  for  MP2 TOTAL ENERGY

    Full listing of computations to be obtained (required and bonus).
            mp2 / cc-pvtz                  for  MP2 TOTAL ENERGY
             hf / cc-pvtz                  for  HF TOTAL ENERGY
            mp2 / cc-pvqz                  for  MP2 TOTAL ENERGY
             hf / cc-pvqz                  for  HF TOTAL ENERGY

  //>>>>>>>>>>>>>>>>>>>>>>>>>>>>>>>>>>>//
  //   CBS Computation: MP2 / CC-PVTZ  //
  //<<<<<<<<<<<<<<<<<<<<<<<<<<<<<<<<<<<//

    SCF Algorithm Type (re)set to DF.

*** tstart() called on wr38
*** at Thu Sep 22 07:15:36 2016


         ---------------------------------------------------------
                                   SCF
            by Justin Turney, Rob Parrish, and Andy Simmonett
                              RHF Reference
                       12 Threads,  60000 MiB Core
         ---------------------------------------------------------

  ==> Geometry <==

    Molecular point group: c1
    Full point group: C1

    Geometry (in Angstrom), charge = 0, multiplicity = 1:

       Center              X                  Y                   Z               Mass       
    ------------   -----------------  -----------------  -----------------  -----------------
           C          3.501552120309     0.741730541303     0.121004586240    12.000000000000
           H          3.160866879194     1.739176804326     0.402295927168     1.007825032070
           H          4.252160691280     0.852460392640    -0.661202334329     1.007825032070
           H          3.986251571990     0.299388339954     0.992224876471     1.007825032070
           C         -3.312882768088    -0.001834640952     0.420115319232    12.000000000000
           H         -3.021804059632    -1.042389644893     0.562507410396     1.007825032070
           H         -3.880641450967     0.060225209706    -0.509923920239     1.007825032070
           H         -3.979681033624     0.269075325649     1.238364556682     1.007825032070
           C          2.329648634031    -0.116503385443    -0.339735231797    12.000000000000
           H          2.687713178253    -1.107583607785    -0.633348000346     1.007825032070
           H          1.883285787527     0.328607948869    -1.231692169180     1.007825032070
           C         -2.097477577630     0.917593477858     0.372318998849    12.000000000000
           H         -2.432217459164     1.956604964794     0.333201028463     1.007825032070
           H         -1.526057303990     0.816374444624     1.298052285972     1.007825032070
           C          1.271530637922    -0.269408118843     0.746660434884    12.000000000000
           H          0.881167374458     0.719337545654     1.005667388544     1.007825032070
           H          1.750483641911    -0.653074110998     1.652385089609     1.007825032070
           C          0.123632409266    -1.201421630135     0.362186165053    12.000000000000
           H         -0.571461352248    -1.278198196549     1.202490125462     1.007825032070
           H          0.523420909008    -2.207387862231     0.204621193299     1.007825032070
           C         -0.638295132379    -0.773692921014    -0.892988593935    12.000000000000
           H          0.015291300111    -0.858685588182    -1.764235538964     1.007825032070
           H         -1.456960998559    -1.476458116323    -1.064851536593     1.007825032070
           C         -1.190882477139     0.650512377085    -0.828532961443    12.000000000000
           H         -0.361902976772     1.363214138292    -0.817037621346     1.007825032070
           H         -1.753052307529     0.850663270305    -1.745494371783     1.007825032070

  Running in c1 symmetry.

  Rotational constants: A =      0.13655  B =      0.02791  C =      0.02705 [cm^-1]
  Rotational constants: A =   4093.54025  B =    836.61379  C =    810.94884 [MHz]
  Nuclear repulsion =  402.721610832382453

  Charge       = 0
  Multiplicity = 1
  Electrons    = 66
  Nalpha       = 33
  Nbeta        = 33

  ==> Algorithm <==

  SCF Algorithm Type is DF.
  DIIS enabled.
  MOM disabled.
  Fractional occupation disabled.
  Guess Type is SAD.
  Energy threshold   = 1.00e-08
  Density threshold  = 1.00e-08
  Integral threshold = 0.00e+00

  ==> Primary Basis <==

  Basis Set: CC-PVTZ
    Number of shells: 188
    Number of basis function: 492
    Number of Cartesian functions: 550
    Spherical Harmonics?: true
    Max angular momentum: 3

  ==> Pre-Iterations <==

   -------------------------------------------------------
    Irrep   Nso     Nmo     Nalpha   Nbeta   Ndocc  Nsocc
   -------------------------------------------------------
     A        492     492       0       0       0       0
   -------------------------------------------------------
    Total     492     492      33      33      33       0
   -------------------------------------------------------

  ==> Integral Setup <==

  ==> DFJK: Density-Fitted J/K Matrices <==

    J tasked:                  Yes
    K tasked:                  Yes
    wK tasked:                  No
    OpenMP threads:             12
    Integrals threads:          12
    Memory (MB):             42915
    Algorithm:                Core
    Integral Cache:           NONE
    Schwarz Cutoff:          1E-12
    Fitting Condition:       1E-12

   => Auxiliary Basis Set <=

  Basis Set: 
    Number of shells: 380
    Number of basis function: 1172
    Number of Cartesian functions: 1398
    Spherical Harmonics?: true
    Max angular momentum: 4

  Minimum eigenvalue in the overlap matrix is 2.4167253970E-04.
  Using Symmetric Orthogonalization.
  SCF Guess: Superposition of Atomic Densities via on-the-fly atomic UHF.

  ==> Iterations <==

                           Total Energy        Delta E     RMS |[F,P]|

   @DF-RHF iter   0:  -317.27871460350684   -3.17279e+02   1.13002e-02 
   @DF-RHF iter   1:  -313.33662371917899    3.94209e+00   9.69058e-04 
   @DF-RHF iter   2:  -313.51872137251485   -1.82098e-01   2.68991e-04 DIIS
   @DF-RHF iter   3:  -313.53686489086124   -1.81435e-02   6.78715e-05 DIIS
   @DF-RHF iter   4:  -313.53794007211388   -1.07518e-03   2.33428e-05 DIIS
   @DF-RHF iter   5:  -313.53804355392379   -1.03482e-04   4.83693e-06 DIIS
   @DF-RHF iter   6:  -313.53805022554502   -6.67162e-06   1.06116e-06 DIIS
   @DF-RHF iter   7:  -313.53805048733113   -2.61786e-07   2.93167e-07 DIIS
   @DF-RHF iter   8:  -313.53805050841947   -2.10883e-08   8.28850e-08 DIIS
   @DF-RHF iter   9:  -313.53805051003781   -1.61833e-09   2.41461e-08 DIIS
   @DF-RHF iter  10:  -313.53805051019435   -1.56547e-10   5.38653e-09 DIIS

  ==> Post-Iterations <==

    Orbital Energies (a.u.)
    -----------------------

    Doubly Occupied:                                                      

       1A    -11.212411     2A    -11.212200     3A    -11.210533  
       4A    -11.210381     5A    -11.209764     6A    -11.209002  
       7A    -11.207158     8A    -11.206811     9A     -1.097262  
      10A     -1.058044    11A     -1.005739    12A     -0.947034  
      13A     -0.889333    14A     -0.836623    15A     -0.789758  
      16A     -0.739902    17A     -0.652613    18A     -0.639095  
      19A     -0.611537    20A     -0.581241    21A     -0.577473  
      22A     -0.569867    23A     -0.543935    24A     -0.524052  
      25A     -0.518244    26A     -0.506712    27A     -0.487136  
      28A     -0.474598    29A     -0.468979    30A     -0.462354  
      31A     -0.443246    32A     -0.436943    33A     -0.434506  

    Virtual:                                                              

      34A      0.139517    35A      0.149901    36A      0.157690  
      37A      0.160491    38A      0.179563    39A      0.190085  
      40A      0.194747    41A      0.214725    42A      0.216833  
      43A      0.222606    44A      0.232589    45A      0.240775  
      46A      0.244944    47A      0.251932    48A      0.260684  
      49A      0.276261    50A      0.288583    51A      0.303803  
      52A      0.321748    53A      0.331689    54A      0.345181  
      55A      0.353996    56A      0.359236    57A      0.365351  
      58A      0.389852    59A      0.399638    60A      0.404946  
      61A      0.415557    62A      0.422543    63A      0.430711  
      64A      0.445805    65A      0.457540    66A      0.465983  
      67A      0.489648    68A      0.491684    69A      0.513163  
      70A      0.546519    71A      0.552957    72A      0.577318  
      73A      0.586206    74A      0.589862    75A      0.591641  
      76A      0.601398    77A      0.607275    78A      0.620013  
      79A      0.626472    80A      0.630842    81A      0.640359  
      82A      0.642915    83A      0.648007    84A      0.651348  
      85A      0.661240    86A      0.665493    87A      0.669487  
      88A      0.673979    89A      0.685042    90A      0.689954  
      91A      0.695665    92A      0.701953    93A      0.705865  
      94A      0.716601    95A      0.723127    96A      0.736091  
      97A      0.742687    98A      0.759364    99A      0.765786  
     100A      0.771881   101A      0.785328   102A      0.825584  
     103A      0.839291   104A      0.853141   105A      0.881525  
     106A      0.894363   107A      0.929776   108A      0.944326  
     109A      0.950530   110A      0.952897   111A      0.970737  
     112A      0.982394   113A      0.990465   114A      0.998929  
     115A      1.030855   116A      1.059931   117A      1.063981  
     118A      1.082654   119A      1.094441   120A      1.117197  
     121A      1.119440   122A      1.130994   123A      1.137165  
     124A      1.158151   125A      1.177540   126A      1.191581  
     127A      1.201202   128A      1.215793   129A      1.219404  
     130A      1.235059   131A      1.235625   132A      1.249372  
     133A      1.258821   134A      1.282873   135A      1.294152  
     136A      1.302574   137A      1.307484   138A      1.310068  
     139A      1.324509   140A      1.327810   141A      1.330086  
     142A      1.332662   143A      1.344805   144A      1.361201  
     145A      1.362932   146A      1.373972   147A      1.389292  
     148A      1.396805   149A      1.404624   150A      1.411945  
     151A      1.416085   152A      1.420353   153A      1.436915  
     154A      1.447313   155A      1.455526   156A      1.466593  
     157A      1.482622   158A      1.486362   159A      1.491270  
     160A      1.500478   161A      1.518427   162A      1.529578  
     163A      1.530596   164A      1.544085   165A      1.562187  
     166A      1.564205   167A      1.581023   168A      1.593611  
     169A      1.605776   170A      1.610814   171A      1.617068  
     172A      1.630179   173A      1.644980   174A      1.652360  
     175A      1.654398   176A      1.668212   177A      1.684232  
     178A      1.689044   179A      1.699152   180A      1.710115  
     181A      1.723714   182A      1.738117   183A      1.741307  
     184A      1.755626   185A      1.760264   186A      1.774784  
     187A      1.780675   188A      1.807950   189A      1.824770  
     190A      1.837187   191A      1.840819   192A      1.858780  
     193A      1.896252   194A      1.911111   195A      1.918431  
     196A      1.944070   197A      1.995608   198A      2.027752  
     199A      2.044630   200A      2.080261   201A      2.121554  
     202A      2.147103   203A      2.530234   204A      2.551255  
     205A      2.582935   206A      2.594596   207A      2.630512  
     208A      2.639193   209A      2.651734   210A      2.677937  
     211A      2.693191   212A      2.712487   213A      2.725068  
     214A      2.738359   215A      2.750486   216A      2.762366  
     217A      2.770998   218A      2.789508   219A      2.807777  
     220A      2.832577   221A      2.853830   222A      2.868485  
     223A      2.883798   224A      2.887129   225A      2.888411  
     226A      2.896243   227A      2.923731   228A      2.935749  
     229A      2.941606   230A      2.945265   231A      2.970201  
     232A      2.974498   233A      2.984709   234A      2.991402  
     235A      3.001700   236A      3.011260   237A      3.024206  
     238A      3.032574   239A      3.039905   240A      3.050185  
     241A      3.075277   242A      3.088022   243A      3.095685  
     244A      3.119804   245A      3.128814   246A      3.133736  
     247A      3.146017   248A      3.157377   249A      3.166570  
     250A      3.176142   251A      3.190894   252A      3.201574  
     253A      3.216264   254A      3.229989   255A      3.232854  
     256A      3.264239   257A      3.275448   258A      3.291286  
     259A      3.300457   260A      3.308761   261A      3.323697  
     262A      3.338506   263A      3.349597   264A      3.357867  
     265A      3.360412   266A      3.366172   267A      3.379351  
     268A      3.386113   269A      3.402960   270A      3.420256  
     271A      3.424249   272A      3.425388   273A      3.435965  
     274A      3.450860   275A      3.455035   276A      3.478895  
     277A      3.484190   278A      3.489208   279A      3.497718  
     280A      3.502072   281A      3.512826   282A      3.516594  
     283A      3.525038   284A      3.527341   285A      3.534118  
     286A      3.545405   287A      3.550117   288A      3.560188  
     289A      3.577520   290A      3.594201   291A      3.604739  
     292A      3.619504   293A      3.628918   294A      3.641108  
     295A      3.655949   296A      3.669930   297A      3.682464  
     298A      3.693473   299A      3.704492   300A      3.709179  
     301A      3.724878   302A      3.741639   303A      3.750809  
     304A      3.771144   305A      3.773986   306A      3.780094  
     307A      3.783865   308A      3.792527   309A      3.804775  
     310A      3.825130   311A      3.835775   312A      3.842361  
     313A      3.861535   314A      3.873616   315A      3.887290  
     316A      3.889235   317A      3.907267   318A      3.925644  
     319A      3.941063   320A      3.946924   321A      3.951585  
     322A      3.978953   323A      3.994907   324A      4.003082  
     325A      4.007882   326A      4.024530   327A      4.049472  
     328A      4.060912   329A      4.073198   330A      4.085570  
     331A      4.098908   332A      4.101786   333A      4.108782  
     334A      4.119765   335A      4.133190   336A      4.137517  
     337A      4.143603   338A      4.155246   339A      4.160140  
     340A      4.167291   341A      4.174304   342A      4.189110  
     343A      4.200894   344A      4.202423   345A      4.225684  
     346A      4.227914   347A      4.238642   348A      4.245554  
     349A      4.261645   350A      4.265307   351A      4.279395  
     352A      4.291088   353A      4.303299   354A      4.313546  
     355A      4.323177   356A      4.336496   357A      4.344981  
     358A      4.354269   359A      4.359968   360A      4.369178  
     361A      4.385986   362A      4.387002   363A      4.414832  
     364A      4.432979   365A      4.434905   366A      4.442538  
     367A      4.447268   368A      4.450488   369A      4.461060  
     370A      4.468547   371A      4.476537   372A      4.489767  
     373A      4.498811   374A      4.518007   375A      4.530458  
     376A      4.539661   377A      4.546201   378A      4.557625  
     379A      4.575607   380A      4.584922   381A      4.596060  
     382A      4.600324   383A      4.624241   384A      4.637462  
     385A      4.647573   386A      4.655165   387A      4.677161  
     388A      4.682463   389A      4.703462   390A      4.719817  
     391A      4.731226   392A      4.736774   393A      4.748408  
     394A      4.760376   395A      4.763691   396A      4.787003  
     397A      4.797920   398A      4.803633   399A      4.823575  
     400A      4.845576   401A      4.848995   402A      4.878035  
     403A      4.891545   404A      4.921110   405A      4.933419  
     406A      4.983728   407A      4.999381   408A      5.011956  
     409A      5.031956   410A      5.041280   411A      5.052229  
     412A      5.080119   413A      5.103944   414A      5.134300  
     415A      5.136207   416A      5.159403   417A      5.176483  
     418A      5.195333   419A      5.207718   420A      5.231090  
     421A      5.244211   422A      5.251212   423A      5.259711  
     424A      5.265205   425A      5.283885   426A      5.294935  
     427A      5.310055   428A      5.317454   429A      5.332214  
     430A      5.336103   431A      5.356213   432A      5.371367  
     433A      5.384159   434A      5.397064   435A      5.412688  
     436A      5.418928   437A      5.447300   438A      5.488759  
     439A      5.521507   440A      5.531298   441A      5.560488  
     442A      5.571238   443A      5.589197   444A      5.634485  
     445A      5.641940   446A      5.653076   447A      5.661397  
     448A      5.681809   449A      5.685924   450A      5.721409  
     451A      5.729673   452A      5.737818   453A      5.744461  
     454A      5.750846   455A      5.760902   456A      5.773912  
     457A      5.789650   458A      5.813554   459A      5.832375  
     460A      5.844687   461A      5.855868   462A      5.879389  
     463A      5.886616   464A      5.906339   465A      5.908441  
     466A      5.944367   467A      5.949761   468A      5.973940  
     469A      5.998052   470A      6.051284   471A      6.083206  
     472A      6.103140   473A      6.177604   474A      6.181949  
     475A      6.311222   476A      6.325131   477A      6.333988  
     478A      6.344219   479A      6.386842   480A      6.417985  
     481A      6.464588   482A      6.550139   483A      6.569418  
     484A      6.576313   485A     13.151312   486A     13.258202  
     487A     13.330500   488A     13.699647   489A     13.736651  
     490A     13.875956   491A     14.187655   492A     14.224985  

    Final Occupation by Irrep:
              A 
    DOCC [    33 ]

  Energy converged.

  @DF-RHF Final Energy:  -313.53805051019435

   => Energetics <=

    Nuclear Repulsion Energy =            402.7216108323824528
    One-Electron Energy =               -1220.5703440159893489
    Two-Electron Energy =                 504.3106826734126571
    DFT Exchange-Correlation Energy =       0.0000000000000000
    Empirical Dispersion Energy =           0.0000000000000000
    PCM Polarization Energy =               0.0000000000000000
    EFP Energy =                            0.0000000000000000
    Total Energy =                       -313.5380505101942390


  Saving occupied orbitals to File 180.

*** tstop() called on wr38 at Thu Sep 22 07:15:49 2016
Module time:
	user time   =     131.51 seconds =       2.19 minutes
	system time =       2.73 seconds =       0.05 minutes
	total time  =         13 seconds =       0.22 minutes
Total time:
	user time   =     131.51 seconds =       2.19 minutes
	system time =       2.73 seconds =       0.05 minutes
	total time  =         13 seconds =       0.22 minutes


Properties will be evaluated at   0.000000,   0.000000,   0.000000 Bohr

Properties computed using the SCF density matrix

  Nuclear Dipole Moment: (a.u.)
     X:     0.1471      Y:     0.5919      Z:     0.4350

  Electronic Dipole Moment: (a.u.)
     X:    -0.1497      Y:    -0.5958      Z:    -0.4479

  Dipole Moment: (a.u.)
     X:    -0.0026      Y:    -0.0039      Z:    -0.0129     Total:     0.0137

  Dipole Moment: (Debye)
     X:    -0.0066      Y:    -0.0099      Z:    -0.0328     Total:     0.0349


  //>>>>>>>>>>>>>>>>>>>>>>>>>>>>>>>>>>>//
  //               DFMP2               //
  //<<<<<<<<<<<<<<<<<<<<<<<<<<<<<<<<<<<//


*** tstart() called on wr38
*** at Thu Sep 22 07:15:49 2016


*** tstop() called on wr38 at Thu Sep 22 07:15:50 2016
Module time:
	user time   =       2.62 seconds =       0.04 minutes
	system time =       0.10 seconds =       0.00 minutes
	total time  =          1 seconds =       0.02 minutes
Total time:
	user time   =     134.62 seconds =       2.24 minutes
	system time =       2.84 seconds =       0.05 minutes
	total time  =         14 seconds =       0.23 minutes
	 --------------------------------------------------------
	                          DF-MP2                         
	      2nd-Order Density-Fitted Moller-Plesset Theory     
	              RMP2 Wavefunction,  12 Threads             
	                                                         
	        Rob Parrish, Justin Turney, Andy Simmonett,      
	           Ed Hohenstein, and C. David Sherrill          
	 --------------------------------------------------------

   => Auxiliary Basis Set <=

  Basis Set: 
    Number of shells: 364
    Number of basis function: 1188
    Number of Cartesian functions: 1438
    Spherical Harmonics?: true
    Max angular momentum: 4

	 --------------------------------------------------------
	                 NBF =   492, NAUX =  1188
	 --------------------------------------------------------
	   CLASS    FOCC     OCC    AOCC    AVIR     VIR    FVIR
	   PAIRS       8      33      25     459     459       0
	 --------------------------------------------------------

	-----------------------------------------------------------
	 ==================> DF-MP2 Energies <==================== 
	-----------------------------------------------------------
	 Reference Energy          =    -313.5380505101943527 [Eh]
	 Singles Energy            =      -0.0000000000008159 [Eh]
	 Same-Spin Energy          =      -0.3138122057793462 [Eh]
	 Opposite-Spin Energy      =      -1.1083537888698722 [Eh]
	 Correlation Energy        =      -1.4221659946500342 [Eh]
	 Total Energy              =    -314.9602165048443680 [Eh]
	-----------------------------------------------------------
	 ================> DF-SCS-MP2 Energies <================== 
	-----------------------------------------------------------
	 SCS Same-Spin Scale       =       0.3333333333333333 [-]
	 SCS Opposite-Spin Scale   =       1.2000000000000000 [-]
	 SCS Same-Spin Energy      =      -0.1046040685931154 [Eh]
	 SCS Opposite-Spin Energy  =      -1.3300245466438467 [Eh]
	 SCS Correlation Energy    =      -1.4346286152377778 [Eh]
	 SCS Total Energy          =    -314.9726791254321370 [Eh]
	-----------------------------------------------------------


  //>>>>>>>>>>>>>>>>>>>>>>>>>>>>>>>>>>>//
  //   CBS Computation: MP2 / CC-PVQZ  //
  //<<<<<<<<<<<<<<<<<<<<<<<<<<<<<<<<<<<//

    SCF Algorithm Type (re)set to DF.

*** tstart() called on wr38
*** at Thu Sep 22 07:15:59 2016


         ---------------------------------------------------------
                                   SCF
            by Justin Turney, Rob Parrish, and Andy Simmonett
                              RHF Reference
                       12 Threads,  60000 MiB Core
         ---------------------------------------------------------

  ==> Geometry <==

    Molecular point group: c1
    Full point group: C1

    Geometry (in Angstrom), charge = 0, multiplicity = 1:

       Center              X                  Y                   Z               Mass       
    ------------   -----------------  -----------------  -----------------  -----------------
           C          3.501552120309     0.741730541303     0.121004586240    12.000000000000
           H          3.160866879194     1.739176804326     0.402295927168     1.007825032070
           H          4.252160691280     0.852460392640    -0.661202334329     1.007825032070
           H          3.986251571990     0.299388339954     0.992224876471     1.007825032070
           C         -3.312882768088    -0.001834640952     0.420115319232    12.000000000000
           H         -3.021804059632    -1.042389644893     0.562507410396     1.007825032070
           H         -3.880641450967     0.060225209706    -0.509923920239     1.007825032070
           H         -3.979681033624     0.269075325649     1.238364556682     1.007825032070
           C          2.329648634031    -0.116503385443    -0.339735231797    12.000000000000
           H          2.687713178253    -1.107583607785    -0.633348000346     1.007825032070
           H          1.883285787527     0.328607948869    -1.231692169180     1.007825032070
           C         -2.097477577630     0.917593477858     0.372318998849    12.000000000000
           H         -2.432217459164     1.956604964794     0.333201028463     1.007825032070
           H         -1.526057303990     0.816374444624     1.298052285972     1.007825032070
           C          1.271530637922    -0.269408118843     0.746660434884    12.000000000000
           H          0.881167374458     0.719337545654     1.005667388544     1.007825032070
           H          1.750483641911    -0.653074110998     1.652385089609     1.007825032070
           C          0.123632409266    -1.201421630135     0.362186165053    12.000000000000
           H         -0.571461352248    -1.278198196549     1.202490125462     1.007825032070
           H          0.523420909008    -2.207387862231     0.204621193299     1.007825032070
           C         -0.638295132379    -0.773692921014    -0.892988593935    12.000000000000
           H          0.015291300111    -0.858685588182    -1.764235538964     1.007825032070
           H         -1.456960998559    -1.476458116323    -1.064851536593     1.007825032070
           C         -1.190882477139     0.650512377085    -0.828532961443    12.000000000000
           H         -0.361902976772     1.363214138292    -0.817037621346     1.007825032070
           H         -1.753052307529     0.850663270305    -1.745494371783     1.007825032070

  Running in c1 symmetry.

  Rotational constants: A =      0.13655  B =      0.02791  C =      0.02705 [cm^-1]
  Rotational constants: A =   4093.54025  B =    836.61379  C =    810.94884 [MHz]
  Nuclear repulsion =  402.721610832382453

  Charge       = 0
  Multiplicity = 1
  Electrons    = 66
  Nalpha       = 33
  Nbeta        = 33

  ==> Algorithm <==

  SCF Algorithm Type is DF.
  DIIS enabled.
  MOM disabled.
  Fractional occupation disabled.
  Guess Type is SAD.
  Energy threshold   = 1.00e-08
  Density threshold  = 1.00e-08
  Integral threshold = 0.00e+00

  ==> Primary Basis <==

  Basis Set: CC-PVQZ
    Number of shells: 300
    Number of basis function: 980
    Number of Cartesian functions: 1190
    Spherical Harmonics?: true
    Max angular momentum: 4

  ==> Pre-Iterations <==

   -------------------------------------------------------
    Irrep   Nso     Nmo     Nalpha   Nbeta   Ndocc  Nsocc
   -------------------------------------------------------
     A        980     980       0       0       0       0
   -------------------------------------------------------
    Total     980     980      33      33      33       0
   -------------------------------------------------------

  ==> Integral Setup <==

  ==> DFJK: Density-Fitted J/K Matrices <==

    J tasked:                  Yes
    K tasked:                  Yes
    wK tasked:                  No
    OpenMP threads:             12
    Integrals threads:          12
    Memory (MB):             42915
    Algorithm:                Core
    Integral Cache:           NONE
    Schwarz Cutoff:          1E-12
    Fitting Condition:       1E-12

   => Auxiliary Basis Set <=

  Basis Set: 
    Number of shells: 458
    Number of basis function: 1766
    Number of Cartesian functions: 2324
    Spherical Harmonics?: true
    Max angular momentum: 5

  Minimum eigenvalue in the overlap matrix is 4.1612527616E-05.
  Using Symmetric Orthogonalization.
  SCF Guess: Superposition of Atomic Densities via on-the-fly atomic UHF.

  ==> Iterations <==

                           Total Energy        Delta E     RMS |[F,P]|

   @DF-RHF iter   0:  -317.09477750348185   -3.17095e+02   5.66375e-03 
   @DF-RHF iter   1:  -313.32593022323886    3.76885e+00   5.59199e-04 
   @DF-RHF iter   2:  -313.53129725750603   -2.05367e-01   1.88232e-04 DIIS
   @DF-RHF iter   3:  -313.55346266309471   -2.21654e-02   7.48217e-05 DIIS
   @DF-RHF iter   4:  -313.55759392799098   -4.13126e-03   1.33001e-05 DIIS
   @DF-RHF iter   5:  -313.55777881684423   -1.84889e-04   2.90692e-06 DIIS
   @DF-RHF iter   6:  -313.55778925236098   -1.04355e-05   8.64934e-07 DIIS
   @DF-RHF iter   7:  -313.55778993680394   -6.84443e-07   2.38222e-07 DIIS
   @DF-RHF iter   8:  -313.55778999108020   -5.42763e-08   6.34222e-08 DIIS
   @DF-RHF iter   9:  -313.55778999516485   -4.08465e-09   1.75185e-08 DIIS
   @DF-RHF iter  10:  -313.55778999548727   -3.22416e-10   5.27760e-09 DIIS

  ==> Post-Iterations <==

    Orbital Energies (a.u.)
    -----------------------

    Doubly Occupied:                                                      

       1A    -11.211292     2A    -11.211094     3A    -11.209413  
       4A    -11.209256     5A    -11.208634     6A    -11.207867  
       7A    -11.206187     8A    -11.205823     9A     -1.096959  
      10A     -1.057758    11A     -1.005482    12A     -0.946815  
      13A     -0.889162    14A     -0.836500    15A     -0.789669  
      16A     -0.739830    17A     -0.652667    18A     -0.639151  
      19A     -0.611613    20A     -0.581330    21A     -0.577569  
      22A     -0.569954    23A     -0.544056    24A     -0.524158  
      25A     -0.518365    26A     -0.506843    27A     -0.487283  
      28A     -0.474734    29A     -0.469169    30A     -0.462462  
      31A     -0.443400    32A     -0.437065    33A     -0.434642  

    Virtual:                                                              

      34A      0.111957    35A      0.122095    36A      0.127260  
      37A      0.129509    38A      0.149538    39A      0.158971  
      40A      0.165520    41A      0.175896    42A      0.181739  
      43A      0.187311    44A      0.195467    45A      0.205294  
      46A      0.211666    47A      0.217852    48A      0.228771  
      49A      0.238647    50A      0.250725    51A      0.263211  
      52A      0.276521    53A      0.283754    54A      0.284472  
      55A      0.295545    56A      0.303466    57A      0.313333  
      58A      0.317024    59A      0.323041    60A      0.338704  
      61A      0.343026    62A      0.354029    63A      0.363196  
      64A      0.380632    65A      0.395332    66A      0.396904  
      67A      0.421743    68A      0.429060    69A      0.432367  
      70A      0.437002    71A      0.447442    72A      0.450265  
      73A      0.460112    74A      0.465381    75A      0.469169  
      76A      0.481268    77A      0.492925    78A      0.497951  
      79A      0.506508    80A      0.508314    81A      0.513402  
      82A      0.517003    83A      0.524545    84A      0.529517  
      85A      0.536202    86A      0.539343    87A      0.543316  
      88A      0.546958    89A      0.560970    90A      0.566520  
      91A      0.571282    92A      0.573801    93A      0.579806  
      94A      0.589403    95A      0.596461    96A      0.601715  
      97A      0.631750    98A      0.636480    99A      0.646314  
     100A      0.650207   101A      0.663547   102A      0.705309  
     103A      0.718875   104A      0.723423   105A      0.749420  
     106A      0.756459   107A      0.770067   108A      0.774270  
     109A      0.790321   110A      0.797335   111A      0.802759  
     112A      0.809218   113A      0.814388   114A      0.822462  
     115A      0.835086   116A      0.841948   117A      0.854571  
     118A      0.861383   119A      0.870099   120A      0.876308  
     121A      0.885676   122A      0.892826   123A      0.900410  
     124A      0.905212   125A      0.914132   126A      0.922288  
     127A      0.933870   128A      0.943449   129A      0.948664  
     130A      0.953655   131A      0.963345   132A      0.976664  
     133A      0.987454   134A      0.991036   135A      0.995141  
     136A      1.003633   137A      1.010476   138A      1.018846  
     139A      1.025725   140A      1.036424   141A      1.049765  
     142A      1.058084   143A      1.059234   144A      1.063723  
     145A      1.072746   146A      1.077595   147A      1.083620  
     148A      1.087365   149A      1.096271   150A      1.100115  
     151A      1.105344   152A      1.110196   153A      1.111912  
     154A      1.122992   155A      1.126444   156A      1.132219  
     157A      1.144533   158A      1.151292   159A      1.155259  
     160A      1.160968   161A      1.168108   162A      1.175452  
     163A      1.180425   164A      1.187641   165A      1.196706  
     166A      1.197293   167A      1.209532   168A      1.217232  
     169A      1.220790   170A      1.228197   171A      1.234805  
     172A      1.236460   173A      1.242650   174A      1.251195  
     175A      1.260352   176A      1.261498   177A      1.274614  
     178A      1.286752   179A      1.293545   180A      1.309514  
     181A      1.319317   182A      1.325592   183A      1.333584  
     184A      1.348841   185A      1.356560   186A      1.367437  
     187A      1.378253   188A      1.390753   189A      1.394148  
     190A      1.404116   191A      1.413727   192A      1.425466  
     193A      1.433829   194A      1.449489   195A      1.461451  
     196A      1.472213   197A      1.489393   198A      1.507812  
     199A      1.562683   200A      1.590682   201A      1.596817  
     202A      1.622007   203A      1.669043   204A      1.697792  
     205A      1.709917   206A      1.715691   207A      1.733618  
     208A      1.747896   209A      1.755249   210A      1.765140  
     211A      1.774435   212A      1.797225   213A      1.807649  
     214A      1.817847   215A      1.826020   216A      1.839925  
     217A      1.853828   218A      1.862701   219A      1.875143  
     220A      1.886749   221A      1.894595   222A      1.918256  
     223A      1.942084   224A      1.952941   225A      1.974353  
     226A      1.980528   227A      1.998646   228A      2.002814  
     229A      2.014269   230A      2.020180   231A      2.040725  
     232A      2.041177   233A      2.043188   234A      2.057955  
     235A      2.062475   236A      2.066531   237A      2.069704  
     238A      2.075366   239A      2.082520   240A      2.089933  
     241A      2.099173   242A      2.108193   243A      2.110811  
     244A      2.120480   245A      2.131135   246A      2.135756  
     247A      2.145599   248A      2.150326   249A      2.162712  
     250A      2.165838   251A      2.178826   252A      2.181646  
     253A      2.193155   254A      2.195841   255A      2.206787  
     256A      2.214984   257A      2.222960   258A      2.232788  
     259A      2.240419   260A      2.242506   261A      2.257597  
     262A      2.264744   263A      2.268748   264A      2.274870  
     265A      2.279437   266A      2.281869   267A      2.293247  
     268A      2.298773   269A      2.303614   270A      2.312655  
     271A      2.322233   272A      2.324472   273A      2.325815  
     274A      2.341188   275A      2.349978   276A      2.359183  
     277A      2.367247   278A      2.374028   279A      2.382529  
     280A      2.390039   281A      2.396852   282A      2.401110  
     283A      2.412282   284A      2.424425   285A      2.431676  
     286A      2.439343   287A      2.453016   288A      2.463316  
     289A      2.473201   290A      2.474554   291A      2.491294  
     292A      2.494022   293A      2.512466   294A      2.520964  
     295A      2.522995   296A      2.526880   297A      2.534476  
     298A      2.540794   299A      2.554185   300A      2.565565  
     301A      2.567589   302A      2.581541   303A      2.602293  
     304A      2.608730   305A      2.626144   306A      2.628425  
     307A      2.633387   308A      2.648797   309A      2.663404  
     310A      2.673017   311A      2.679493   312A      2.688707  
     313A      2.700077   314A      2.702903   315A      2.721401  
     316A      2.729688   317A      2.731721   318A      2.748374  
     319A      2.760277   320A      2.770597   321A      2.772223  
     322A      2.772451   323A      2.783244   324A      2.792209  
     325A      2.799980   326A      2.811111   327A      2.814639  
     328A      2.820456   329A      2.821551   330A      2.833383  
     331A      2.841712   332A      2.846426   333A      2.848275  
     334A      2.860765   335A      2.864876   336A      2.872551  
     337A      2.873378   338A      2.892831   339A      2.902152  
     340A      2.909194   341A      2.921712   342A      2.929195  
     343A      2.934662   344A      2.944848   345A      2.945600  
     346A      2.968974   347A      2.977224   348A      2.983549  
     349A      2.996280   350A      3.006360   351A      3.006728  
     352A      3.012372   353A      3.022282   354A      3.032765  
     355A      3.045850   356A      3.051154   357A      3.067511  
     358A      3.084289   359A      3.092861   360A      3.097477  
     361A      3.102315   362A      3.114613   363A      3.134625  
     364A      3.142288   365A      3.151488   366A      3.160147  
     367A      3.162182   368A      3.168343   369A      3.176303  
     370A      3.183259   371A      3.197168   372A      3.210156  
     373A      3.217897   374A      3.236375   375A      3.240137  
     376A      3.252580   377A      3.274855   378A      3.286286  
     379A      3.293918   380A      3.303273   381A      3.308457  
     382A      3.329032   383A      3.333301   384A      3.336351  
     385A      3.351285   386A      3.352403   387A      3.374874  
     388A      3.380224   389A      3.382048   390A      3.395108  
     391A      3.404338   392A      3.410293   393A      3.421259  
     394A      3.435124   395A      3.448853   396A      3.455227  
     397A      3.459604   398A      3.466506   399A      3.468047  
     400A      3.476707   401A      3.501026   402A      3.508600  
     403A      3.510609   404A      3.520217   405A      3.530419  
     406A      3.555170   407A      3.558830   408A      3.564142  
     409A      3.573562   410A      3.587531   411A      3.597542  
     412A      3.601660   413A      3.613051   414A      3.623171  
     415A      3.624166   416A      3.638007   417A      3.652109  
     418A      3.678498   419A      3.691620   420A      3.695106  
     421A      3.714630   422A      3.728468   423A      3.741215  
     424A      3.742989   425A      3.764741   426A      3.773599  
     427A      3.789248   428A      3.798640   429A      3.809999  
     430A      3.813997   431A      3.832325   432A      3.841283  
     433A      3.853976   434A      3.871441   435A      3.878269  
     436A      3.883842   437A      3.889380   438A      3.903463  
     439A      3.912207   440A      3.915418   441A      3.940725  
     442A      3.951822   443A      3.960591   444A      3.973921  
     445A      3.991547   446A      4.002670   447A      4.010380  
     448A      4.016450   449A      4.048855   450A      4.056939  
     451A      4.074307   452A      4.093845   453A      4.112148  
     454A      4.125754   455A      4.132943   456A      4.148985  
     457A      4.151232   458A      4.172021   459A      4.183084  
     460A      4.193877   461A      4.205705   462A      4.215821  
     463A      4.230762   464A      4.241525   465A      4.254066  
     466A      4.263191   467A      4.272670   468A      4.275469  
     469A      4.299041   470A      4.306776   471A      4.315816  
     472A      4.320040   473A      4.332166   474A      4.332822  
     475A      4.342281   476A      4.358686   477A      4.385856  
     478A      4.398452   479A      4.412524   480A      4.418222  
     481A      4.434934   482A      4.452784   483A      4.460800  
     484A      4.476017   485A      4.485113   486A      4.502381  
     487A      4.519261   488A      4.566168   489A      4.573537  
     490A      4.640793   491A      4.657551   492A      4.741329  
     493A      5.306644   494A      5.316637   495A      5.353617  
     496A      5.404965   497A      5.451269   498A      5.488837  
     499A      5.510991   500A      5.549967   501A      5.577612  
     502A      5.583217   503A      5.599151   504A      5.628397  
     505A      5.651423   506A      5.672260   507A      5.682060  
     508A      5.694765   509A      5.716139   510A      5.727939  
     511A      5.746787   512A      5.753617   513A      5.777553  
     514A      5.782031   515A      5.788986   516A      5.795187  
     517A      5.804521   518A      5.827804   519A      5.835172  
     520A      5.847054   521A      5.853799   522A      5.878275  
     523A      5.884486   524A      5.906123   525A      5.913016  
     526A      5.925774   527A      5.954150   528A      5.967014  
     529A      5.988005   530A      6.005044   531A      6.014689  
     532A      6.029277   533A      6.041400   534A      6.050618  
     535A      6.059841   536A      6.077051   537A      6.099592  
     538A      6.114634   539A      6.122738   540A      6.132681  
     541A      6.134844   542A      6.147767   543A      6.155851  
     544A      6.163215   545A      6.175991   546A      6.180638  
     547A      6.193007   548A      6.199544   549A      6.204608  
     550A      6.211483   551A      6.220457   552A      6.231853  
     553A      6.238633   554A      6.245402   555A      6.251264  
     556A      6.264039   557A      6.269278   558A      6.277672  
     559A      6.284070   560A      6.287894   561A      6.295292  
     562A      6.307463   563A      6.314150   564A      6.319652  
     565A      6.331825   566A      6.340612   567A      6.345792  
     568A      6.358914   569A      6.364120   570A      6.374382  
     571A      6.395072   572A      6.406172   573A      6.418334  
     574A      6.422227   575A      6.430992   576A      6.441456  
     577A      6.446835   578A      6.451633   579A      6.468061  
     580A      6.472123   581A      6.477901   582A      6.486498  
     583A      6.498231   584A      6.501912   585A      6.516275  
     586A      6.525827   587A      6.531681   588A      6.535112  
     589A      6.542313   590A      6.544529   591A      6.549219  
     592A      6.557151   593A      6.562010   594A      6.568860  
     595A      6.577778   596A      6.581606   597A      6.586305  
     598A      6.593272   599A      6.600362   600A      6.608464  
     601A      6.611206   602A      6.622261   603A      6.624827  
     604A      6.635057   605A      6.645815   606A      6.647021  
     607A      6.653520   608A      6.662758   609A      6.673033  
     610A      6.684729   611A      6.696041   612A      6.701344  
     613A      6.705349   614A      6.717453   615A      6.723462  
     616A      6.728951   617A      6.736942   618A      6.743046  
     619A      6.750352   620A      6.760914   621A      6.775272  
     622A      6.777539   623A      6.786371   624A      6.792133  
     625A      6.800665   626A      6.808806   627A      6.809783  
     628A      6.822616   629A      6.828156   630A      6.835004  
     631A      6.850130   632A      6.861036   633A      6.867700  
     634A      6.880248   635A      6.890034   636A      6.906805  
     637A      6.913626   638A      6.920088   639A      6.926567  
     640A      6.939615   641A      6.952377   642A      6.967074  
     643A      6.982454   644A      7.005881   645A      7.013127  
     646A      7.018426   647A      7.021411   648A      7.049497  
     649A      7.056768   650A      7.064211   651A      7.083078  
     652A      7.090196   653A      7.108067   654A      7.128747  
     655A      7.140507   656A      7.147814   657A      7.173154  
     658A      7.187552   659A      7.202576   660A      7.224022  
     661A      7.233189   662A      7.239990   663A      7.250693  
     664A      7.255474   665A      7.263863   666A      7.270215  
     667A      7.293326   668A      7.295450   669A      7.312388  
     670A      7.331158   671A      7.349995   672A      7.372776  
     673A      7.376924   674A      7.382864   675A      7.397977  
     676A      7.405673   677A      7.422129   678A      7.438260  
     679A      7.452102   680A      7.460537   681A      7.462638  
     682A      7.469359   683A      7.482172   684A      7.492012  
     685A      7.507346   686A      7.516958   687A      7.524022  
     688A      7.531283   689A      7.551901   690A      7.568119  
     691A      7.580867   692A      7.603284   693A      7.620296  
     694A      7.638662   695A      7.649604   696A      7.662636  
     697A      7.682452   698A      7.692251   699A      7.710856  
     700A      7.722918   701A      7.725426   702A      7.734289  
     703A      7.744799   704A      7.750587   705A      7.761231  
     706A      7.777503   707A      7.805165   708A      7.809401  
     709A      7.824516   710A      7.840597   711A      7.846308  
     712A      7.858394   713A      7.874504   714A      7.880868  
     715A      7.894375   716A      7.900803   717A      7.913907  
     718A      7.922476   719A      7.925729   720A      7.938152  
     721A      7.955466   722A      7.958724   723A      7.964302  
     724A      7.969140   725A      7.981828   726A      7.991605  
     727A      8.002361   728A      8.007940   729A      8.016146  
     730A      8.031764   731A      8.039090   732A      8.051602  
     733A      8.062793   734A      8.076490   735A      8.078791  
     736A      8.089562   737A      8.094405   738A      8.108857  
     739A      8.115645   740A      8.126147   741A      8.131025  
     742A      8.138436   743A      8.149266   744A      8.160768  
     745A      8.175393   746A      8.183468   747A      8.190877  
     748A      8.196178   749A      8.214082   750A      8.224716  
     751A      8.230264   752A      8.257053   753A      8.262702  
     754A      8.275781   755A      8.277070   756A      8.280856  
     757A      8.287666   758A      8.293473   759A      8.313568  
     760A      8.317070   761A      8.327414   762A      8.331169  
     763A      8.347862   764A      8.349696   765A      8.365519  
     766A      8.370300   767A      8.375880   768A      8.392224  
     769A      8.400325   770A      8.405239   771A      8.411552  
     772A      8.420451   773A      8.426009   774A      8.430675  
     775A      8.439469   776A      8.449421   777A      8.464979  
     778A      8.475278   779A      8.487064   780A      8.496751  
     781A      8.503853   782A      8.516124   783A      8.518618  
     784A      8.530328   785A      8.536684   786A      8.545371  
     787A      8.561149   788A      8.566040   789A      8.572187  
     790A      8.593607   791A      8.599867   792A      8.613045  
     793A      8.623907   794A      8.630919   795A      8.670196  
     796A      8.681542   797A      8.708685   798A      8.728441  
     799A      8.740428   800A      8.745152   801A      8.752759  
     802A      8.758798   803A      8.773309   804A      8.780012  
     805A      8.791693   806A      8.801900   807A      8.812970  
     808A      8.828183   809A      8.833990   810A      8.844704  
     811A      8.851836   812A      8.853495   813A      8.870058  
     814A      8.871683   815A      8.880622   816A      8.893294  
     817A      8.910033   818A      8.919794   819A      8.931562  
     820A      8.938980   821A      8.957664   822A      8.967690  
     823A      8.979927   824A      8.981729   825A      8.990711  
     826A      9.003623   827A      9.015725   828A      9.017627  
     829A      9.038074   830A      9.056084   831A      9.065729  
     832A      9.076140   833A      9.083012   834A      9.089650  
     835A      9.109025   836A      9.114506   837A      9.122083  
     838A      9.131792   839A      9.157779   840A      9.165801  
     841A      9.192698   842A      9.196002   843A      9.217055  
     844A      9.225932   845A      9.243056   846A      9.247693  
     847A      9.261814   848A      9.274323   849A      9.284297  
     850A      9.292274   851A      9.302897   852A      9.310431  
     853A      9.315677   854A      9.323859   855A      9.331375  
     856A      9.351514   857A      9.353822   858A      9.362973  
     859A      9.377725   860A      9.390854   861A      9.398121  
     862A      9.404343   863A      9.408388   864A      9.416163  
     865A      9.426416   866A      9.436015   867A      9.444929  
     868A      9.456321   869A      9.470319   870A      9.478250  
     871A      9.485194   872A      9.502825   873A      9.505958  
     874A      9.516364   875A      9.530421   876A      9.533444  
     877A      9.554233   878A      9.561449   879A      9.567738  
     880A      9.573502   881A      9.582583   882A      9.591152  
     883A      9.600816   884A      9.613295   885A      9.622653  
     886A      9.627309   887A      9.645358   888A      9.648134  
     889A      9.674631   890A      9.688745   891A      9.694480  
     892A      9.720588   893A      9.731844   894A      9.740997  
     895A      9.753525   896A      9.773886   897A      9.798550  
     898A      9.807539   899A      9.830229   900A      9.899012  
     901A     10.200865   902A     10.213277   903A     10.226698  
     904A     10.232580   905A     10.243755   906A     10.250567  
     907A     10.259981   908A     10.283360   909A     10.295269  
     910A     10.328516   911A     10.347083   912A     10.390101  
     913A     10.418033   914A     10.452456   915A     10.466749  
     916A     10.499533   917A     10.521538   918A     10.537396  
     919A     10.557783   920A     10.571324   921A     10.579155  
     922A     10.588157   923A     10.601117   924A     10.606917  
     925A     10.622435   926A     10.637653   927A     10.655906  
     928A     10.671591   929A     10.680689   930A     10.686721  
     931A     10.696292   932A     10.701775   933A     10.711751  
     934A     10.729742   935A     10.751851   936A     10.770197  
     937A     10.800279   938A     10.819301   939A     10.842813  
     940A     10.864205   941A     10.884985   942A     10.889417  
     943A     10.891690   944A     10.895562   945A     10.909516  
     946A     10.924186   947A     10.949675   948A     10.963555  
     949A     11.012632   950A     11.019311   951A     11.048806  
     952A     11.118999   953A     11.130400   954A     11.230511  
     955A     11.780912   956A     11.803552   957A     12.154006  
     958A     12.188943   959A     12.230365   960A     12.355240  
     961A     12.546852   962A     12.589372   963A     12.876111  
     964A     12.917257   965A     12.939237   966A     12.970129  
     967A     12.982058   968A     13.029358   969A     13.056597  
     970A     13.090930   971A     13.108873   972A     13.149601  
     973A     26.633959   974A     26.669318   975A     26.769699  
     976A     26.792028   977A     26.984220   978A     27.186866  
     979A     27.340661   980A     27.375808  

    Final Occupation by Irrep:
              A 
    DOCC [    33 ]

  Energy converged.

  @DF-RHF Final Energy:  -313.55778999548727

   => Energetics <=

    Nuclear Repulsion Energy =            402.7216108323824528
    One-Electron Energy =               -1220.6263873411003260
    Two-Electron Energy =                 504.3469865132307746
    DFT Exchange-Correlation Energy =       0.0000000000000000
    Empirical Dispersion Energy =           0.0000000000000000
    PCM Polarization Energy =               0.0000000000000000
    EFP Energy =                            0.0000000000000000
    Total Energy =                       -313.5577899954870986


  Saving occupied orbitals to File 180.

*** tstop() called on wr38 at Thu Sep 22 07:17:06 2016
Module time:
	user time   =     687.24 seconds =      11.45 minutes
	system time =       8.86 seconds =       0.15 minutes
	total time  =         67 seconds =       1.12 minutes
Total time:
	user time   =     874.29 seconds =      14.57 minutes
	system time =      13.91 seconds =       0.23 minutes
	total time  =         90 seconds =       1.50 minutes


Properties will be evaluated at   0.000000,   0.000000,   0.000000 Bohr

Properties computed using the SCF density matrix

  Nuclear Dipole Moment: (a.u.)
     X:     0.1471      Y:     0.5919      Z:     0.4350

  Electronic Dipole Moment: (a.u.)
     X:    -0.1496      Y:    -0.5960      Z:    -0.4485

  Dipole Moment: (a.u.)
     X:    -0.0025      Y:    -0.0042      Z:    -0.0135     Total:     0.0144

  Dipole Moment: (Debye)
     X:    -0.0064      Y:    -0.0106      Z:    -0.0343     Total:     0.0365


  //>>>>>>>>>>>>>>>>>>>>>>>>>>>>>>>>>>>//
  //               DFMP2               //
  //<<<<<<<<<<<<<<<<<<<<<<<<<<<<<<<<<<<//


*** tstart() called on wr38
*** at Thu Sep 22 07:17:06 2016


*** tstop() called on wr38 at Thu Sep 22 07:17:07 2016
Module time:
	user time   =       3.12 seconds =       0.05 minutes
	system time =       0.08 seconds =       0.00 minutes
	total time  =          1 seconds =       0.02 minutes
Total time:
	user time   =     877.56 seconds =      14.63 minutes
	system time =      13.99 seconds =       0.23 minutes
	total time  =         91 seconds =       1.52 minutes
	 --------------------------------------------------------
	                          DF-MP2                         
	      2nd-Order Density-Fitted Moller-Plesset Theory     
	              RMP2 Wavefunction,  12 Threads             
	                                                         
	        Rob Parrish, Justin Turney, Andy Simmonett,      
	           Ed Hohenstein, and C. David Sherrill          
	 --------------------------------------------------------

   => Auxiliary Basis Set <=

  Basis Set: 
    Number of shells: 510
    Number of basis function: 2046
    Number of Cartesian functions: 2708
    Spherical Harmonics?: true
    Max angular momentum: 5

	 --------------------------------------------------------
	                 NBF =   980, NAUX =  2046
	 --------------------------------------------------------
	   CLASS    FOCC     OCC    AOCC    AVIR     VIR    FVIR
	   PAIRS       8      33      25     947     947       0
	 --------------------------------------------------------

	-----------------------------------------------------------
	 ==================> DF-MP2 Energies <==================== 
	-----------------------------------------------------------
	 Reference Energy          =    -313.5577899954872692 [Eh]
	 Singles Energy            =      -0.0000000000022894 [Eh]
	 Same-Spin Energy          =      -0.3240789606458622 [Eh]
	 Opposite-Spin Energy      =      -1.1841863373435753 [Eh]
	 Correlation Energy        =      -1.5082652979917270 [Eh]
	 Total Energy              =    -315.0660552934789962 [Eh]
	-----------------------------------------------------------
	 ================> DF-SCS-MP2 Energies <================== 
	-----------------------------------------------------------
	 SCS Same-Spin Scale       =       0.3333333333333333 [-]
	 SCS Opposite-Spin Scale   =       1.2000000000000000 [-]
	 SCS Same-Spin Energy      =      -0.1080263202152874 [Eh]
	 SCS Opposite-Spin Energy  =      -1.4210236048122902 [Eh]
	 SCS Correlation Energy    =      -1.5290499250298670 [Eh]
	 SCS Total Energy          =    -315.0868399205171499 [Eh]
	-----------------------------------------------------------


  //>>>>>>>>>>>>>>>>>>>>>>>>>>>>>>>>>>>//
  //    CBS Results: custom function   //
  //<<<<<<<<<<<<<<<<<<<<<<<<<<<<<<<<<<<//


   ==> Helgaker 2-point SCF extrapolation for method: HF <==

   LO-zeta (3) Energy:               -313.538050510194
   HI-zeta (4) Energy:               -313.557789995487
   Alpha (exponent) Value:             1.630000000000
   Beta (coefficient) Value:           3.263936883102

   @Extrapolated HF/(T,Q):          -313.562599958424



   ==> Helgaker 2-point correlated extrapolation for method: MP2 <==

   LO-zeta (3) Energy:               -314.960216504844
   HI-zeta (4) Energy:               -315.066055293479
   Extrapolated Energy:              -315.143289004104

   @Extrapolated MP2/(T,Q):          -315.143289004104



   ==> Helgaker 2-point correlated extrapolation for method: HF <==

   LO-zeta (3) Energy:               -313.538050510194
   HI-zeta (4) Energy:               -313.557789995487
   Extrapolated Energy:              -313.572194484755

   @Extrapolated HF/(T,Q):           -313.572194484755


   ==> Components <==

  ---------------------------------------------------------------------------------------------------------
                          Method / Basis                      Rqd      Energy [Eh]   Variable
  ---------------------------------------------------------------------------------------------------------
                             mp2 / cc-pvtz                      *    -314.96021650   MP2 TOTAL ENERGY
                              hf / cc-pvtz                      *    -313.53805051   HF TOTAL ENERGY
                             mp2 / cc-pvqz                      *    -315.06605529   MP2 TOTAL ENERGY
                              hf / cc-pvqz                      *    -313.55779000   HF TOTAL ENERGY
  ---------------------------------------------------------------------------------------------------------

   ==> Stages <==

  ---------------------------------------------------------------------------------------------------------
      Stage               Method / Basis                       Wt      Energy [Eh]   Scheme
  ---------------------------------------------------------------------------------------------------------
        scf                   hf / cc-pv[tq]z                   1    -313.56259996   scf_xtpl_helgaker_2
       corl                  mp2 / cc-pv[tq]z                   1    -315.14328900   corl_xtpl_helgaker_2
       corl                   hf / cc-pv[tq]z                  -1    -313.57219448   corl_xtpl_helgaker_2
  ---------------------------------------------------------------------------------------------------------

   ==> CBS <==

  ---------------------------------------------------------------------------------------------------------
      Stage               Method / Basis                               Energy [Eh]   Scheme
  ---------------------------------------------------------------------------------------------------------
        scf                   hf / cc-pv[tq]z                        -313.56259996   scf_xtpl_helgaker_2
       corl                  mp2 / cc-pv[tq]z                          -1.57109452   corl_xtpl_helgaker_2
      total                  CBS                                     -315.13369448   
  ---------------------------------------------------------------------------------------------------------

*** Psi4 exiting successfully. Buy a developer a beer!
