    -----------------------------------------------------------------------
          Psi4: An Open-Source Ab Initio Electronic Structure Package
                              Psi4 1.0.0 Driver

                          Git: Rev {master} 6a9a71b dirty

    J. M. Turney, A. C. Simmonett, R. M. Parrish, E. G. Hohenstein,
    F. A. Evangelista, J. T. Fermann, B. J. Mintz, L. A. Burns, J. J. Wilke,
    M. L. Abrams, N. J. Russ, M. L. Leininger, C. L. Janssen, E. T. Seidl,
    W. D. Allen, H. F. Schaefer, R. A. King, E. F. Valeev, C. D. Sherrill,
    and T. D. Crawford, WIREs Comput. Mol. Sci. 2, 556-565 (2012)
    (doi: 10.1002/wcms.93)

                         Additional Contributions by
    A. E. DePrince, U. Bozkaya, A. Yu. Sokolov, D. G. A. Smith, R. Di Remigio,
    R. M. Richard, J. F. Gonthier, H. R. McAlexander, M. Saitow, and
    B. P. Pritchard
    -----------------------------------------------------------------------


    Psi4 started on: Thu Sep 22 07:15:35 2016

    Process ID:  25196
    PSI4DATADIR: /usr/local/hpc5/psi4conda/share/psi4
    Memory level set to 256.000 MB

  ==> Input File <==

--------------------------------------------------------------------------
memory 60 Gb

molecule molecule_03_psi {
0 1
    C            4.063921132264     0.348810712879     0.149748259052
    H            4.825352597827     0.820399173995    -0.470960789777
    H            4.380258166229    -0.675928658625     0.348324707907
    H            4.033944327871     0.877153050207     1.103465063640
    C           -2.911530778231     1.336583489365     0.518655029557
    H           -3.404840181057     2.243280301789     0.169328848589
    H           -1.941277105128     1.624261901672     0.923742950458
    H           -3.504705445692     0.926027654081     1.337689004489
    C            2.696537355539     0.370634917796    -0.522132190434
    H            2.750298814736    -0.141917989350    -1.486299746053
    H            2.406208877040     1.402747584484    -0.735859352329
    C           -2.767645292327     0.318742570880    -0.607158659230
    H           -3.745724507554     0.138465505260    -1.058581144040
    H           -2.139499806131     0.733473796952    -1.398415656637
    C            1.617846684498    -0.284236029051     0.331227013292
    H            1.560293896398     0.229775295576     1.296400553821
    H            1.906989559398    -1.317489244337     0.548803020444
    C            0.243850380316    -0.272738389719    -0.326450027879
    H            0.295718892236    -0.798992194563    -1.285709963663
    H           -0.029889099574     0.761211245504    -0.555292650798
    C           -0.829717949393    -0.915540517316     0.543475102154
    H           -0.500932629682    -1.919945671081     0.825253169967
    H           -0.919105499147    -0.353263234020     1.477011252100
    C           -2.193858626448    -1.017857464264    -0.137571992047
    H           -2.110359457272    -1.691220443318    -0.995460338588
    H           -2.903075612424    -1.481600231325     0.554372761250
}

set globals {
  reference rhf
  freeze_core true
}
energy(cbs, corl_wfn='mp2', corl_basis='cc-pv[tq]z', scf_basis='cc-pv[tq]z', corl_scheme=corl_xtpl_helgaker_2, scf_scheme=scf_xtpl_helgaker_2)
--------------------------------------------------------------------------
/usr/local/hpc5/psi4conda/lib/python2.7/site-packages/v2rdm_casscf/v2rdm_casscf.so loaded.

  Memory set to  60.000 GiB by Python script.

  //>>>>>>>>>>>>>>>>>>>>>>>>>>>>>>>>>>>//
  //     CBS Setup: custom function    //
  //<<<<<<<<<<<<<<<<<<<<<<<<<<<<<<<<<<<//

    Naive listing of computations required.
             hf / cc-pvtz                  for  HF TOTAL ENERGY
             hf / cc-pvqz                  for  HF TOTAL ENERGY
            mp2 / cc-pvtz                  for  MP2 TOTAL ENERGY
            mp2 / cc-pvqz                  for  MP2 TOTAL ENERGY
             hf / cc-pvtz                  for  HF TOTAL ENERGY
             hf / cc-pvqz                  for  HF TOTAL ENERGY

    Enlightened listing of computations required.
            mp2 / cc-pvtz                  for  MP2 TOTAL ENERGY
            mp2 / cc-pvqz                  for  MP2 TOTAL ENERGY

    Full listing of computations to be obtained (required and bonus).
            mp2 / cc-pvtz                  for  MP2 TOTAL ENERGY
             hf / cc-pvtz                  for  HF TOTAL ENERGY
            mp2 / cc-pvqz                  for  MP2 TOTAL ENERGY
             hf / cc-pvqz                  for  HF TOTAL ENERGY

  //>>>>>>>>>>>>>>>>>>>>>>>>>>>>>>>>>>>//
  //   CBS Computation: MP2 / CC-PVTZ  //
  //<<<<<<<<<<<<<<<<<<<<<<<<<<<<<<<<<<<//

    SCF Algorithm Type (re)set to DF.

*** tstart() called on wr41
*** at Thu Sep 22 07:15:37 2016


         ---------------------------------------------------------
                                   SCF
            by Justin Turney, Rob Parrish, and Andy Simmonett
                              RHF Reference
                       12 Threads,  60000 MiB Core
         ---------------------------------------------------------

  ==> Geometry <==

    Molecular point group: c1
    Full point group: C1

    Geometry (in Angstrom), charge = 0, multiplicity = 1:

       Center              X                  Y                   Z               Mass       
    ------------   -----------------  -----------------  -----------------  -----------------
           C          4.063921132264     0.348810712879     0.149748259052    12.000000000000
           H          4.825352597827     0.820399173995    -0.470960789777     1.007825032070
           H          4.380258166229    -0.675928658625     0.348324707907     1.007825032070
           H          4.033944327871     0.877153050207     1.103465063640     1.007825032070
           C         -2.911530778231     1.336583489365     0.518655029557    12.000000000000
           H         -3.404840181057     2.243280301789     0.169328848589     1.007825032070
           H         -1.941277105128     1.624261901672     0.923742950458     1.007825032070
           H         -3.504705445692     0.926027654081     1.337689004489     1.007825032070
           C          2.696537355539     0.370634917796    -0.522132190434    12.000000000000
           H          2.750298814736    -0.141917989350    -1.486299746053     1.007825032070
           H          2.406208877040     1.402747584484    -0.735859352329     1.007825032070
           C         -2.767645292327     0.318742570880    -0.607158659230    12.000000000000
           H         -3.745724507554     0.138465505260    -1.058581144040     1.007825032070
           H         -2.139499806131     0.733473796952    -1.398415656637     1.007825032070
           C          1.617846684498    -0.284236029051     0.331227013292    12.000000000000
           H          1.560293896398     0.229775295576     1.296400553821     1.007825032070
           H          1.906989559398    -1.317489244337     0.548803020444     1.007825032070
           C          0.243850380316    -0.272738389719    -0.326450027879    12.000000000000
           H          0.295718892236    -0.798992194563    -1.285709963663     1.007825032070
           H         -0.029889099574     0.761211245504    -0.555292650798     1.007825032070
           C         -0.829717949393    -0.915540517316     0.543475102154    12.000000000000
           H         -0.500932629682    -1.919945671081     0.825253169967     1.007825032070
           H         -0.919105499147    -0.353263234020     1.477011252100     1.007825032070
           C         -2.193858626448    -1.017857464264    -0.137571992047    12.000000000000
           H         -2.110359457272    -1.691220443318    -0.995460338588     1.007825032070
           H         -2.903075612424    -1.481600231325     0.554372761250     1.007825032070

  Running in c1 symmetry.

  Rotational constants: A =      0.15189  B =      0.02240  C =      0.02129 [cm^-1]
  Rotational constants: A =   4553.40933  B =    671.46139  C =    638.11515 [MHz]
  Nuclear repulsion =  389.252681455320783

  Charge       = 0
  Multiplicity = 1
  Electrons    = 66
  Nalpha       = 33
  Nbeta        = 33

  ==> Algorithm <==

  SCF Algorithm Type is DF.
  DIIS enabled.
  MOM disabled.
  Fractional occupation disabled.
  Guess Type is SAD.
  Energy threshold   = 1.00e-08
  Density threshold  = 1.00e-08
  Integral threshold = 0.00e+00

  ==> Primary Basis <==

  Basis Set: CC-PVTZ
    Number of shells: 188
    Number of basis function: 492
    Number of Cartesian functions: 550
    Spherical Harmonics?: true
    Max angular momentum: 3

  ==> Pre-Iterations <==

   -------------------------------------------------------
    Irrep   Nso     Nmo     Nalpha   Nbeta   Ndocc  Nsocc
   -------------------------------------------------------
     A        492     492       0       0       0       0
   -------------------------------------------------------
    Total     492     492      33      33      33       0
   -------------------------------------------------------

  ==> Integral Setup <==

  ==> DFJK: Density-Fitted J/K Matrices <==

    J tasked:                  Yes
    K tasked:                  Yes
    wK tasked:                  No
    OpenMP threads:             12
    Integrals threads:          12
    Memory (MB):             42915
    Algorithm:                Core
    Integral Cache:           NONE
    Schwarz Cutoff:          1E-12
    Fitting Condition:       1E-12

   => Auxiliary Basis Set <=

  Basis Set: 
    Number of shells: 380
    Number of basis function: 1172
    Number of Cartesian functions: 1398
    Spherical Harmonics?: true
    Max angular momentum: 4

  Minimum eigenvalue in the overlap matrix is 2.4579658363E-04.
  Using Symmetric Orthogonalization.
  SCF Guess: Superposition of Atomic Densities via on-the-fly atomic UHF.

  ==> Iterations <==

                           Total Energy        Delta E     RMS |[F,P]|

   @DF-RHF iter   0:  -317.25366545179821   -3.17254e+02   1.13439e-02 
   @DF-RHF iter   1:  -313.33479369666958    3.91887e+00   9.75293e-04 
   @DF-RHF iter   2:  -313.52062785383413   -1.85834e-01   2.88118e-04 DIIS
   @DF-RHF iter   3:  -313.54044506710699   -1.98172e-02   9.37647e-05 DIIS
   @DF-RHF iter   4:  -313.54212835024776   -1.68328e-03   2.40521e-05 DIIS
   @DF-RHF iter   5:  -313.54226270613952   -1.34356e-04   4.19678e-06 DIIS
   @DF-RHF iter   6:  -313.54226811456550   -5.40843e-06   1.07758e-06 DIIS
   @DF-RHF iter   7:  -313.54226833697641   -2.22411e-07   3.07223e-07 DIIS
   @DF-RHF iter   8:  -313.54226835666594   -1.96895e-08   5.91799e-08 DIIS
   @DF-RHF iter   9:  -313.54226835762262   -9.56675e-10   1.53167e-08 DIIS
   @DF-RHF iter  10:  -313.54226835768708   -6.44604e-11   4.53159e-09 DIIS

  ==> Post-Iterations <==

    Orbital Energies (a.u.)
    -----------------------

    Doubly Occupied:                                                      

       1A    -11.212577     2A    -11.212003     3A    -11.210645  
       4A    -11.210334     5A    -11.209743     6A    -11.209170  
       7A    -11.207058     8A    -11.206907     9A     -1.094534  
      10A     -1.061642    11A     -1.008466    12A     -0.948757  
      13A     -0.883126    14A     -0.828767    15A     -0.788285  
      16A     -0.756039    17A     -0.654054    18A     -0.627166  
      19A     -0.619749    20A     -0.582273    21A     -0.573487  
      22A     -0.568089    23A     -0.537128    24A     -0.527729  
      25A     -0.520557    26A     -0.504059    27A     -0.483762  
      28A     -0.473782    29A     -0.469047    30A     -0.460204  
      31A     -0.450606    32A     -0.443855    33A     -0.430897  

    Virtual:                                                              

      34A      0.138592    35A      0.149062    36A      0.157846  
      37A      0.160426    38A      0.173058    39A      0.189427  
      40A      0.191389    41A      0.210056    42A      0.217074  
      43A      0.222391    44A      0.226921    45A      0.236743  
      46A      0.244266    47A      0.252979    48A      0.261704  
      49A      0.267619    50A      0.288408    51A      0.295727  
      52A      0.316096    53A      0.328921    54A      0.340610  
      55A      0.354283    56A      0.360845    57A      0.372282  
      58A      0.383694    59A      0.393462    60A      0.403195  
      61A      0.414168    62A      0.424631    63A      0.444631  
      64A      0.453532    65A      0.466108    66A      0.470691  
      67A      0.487112    68A      0.494411    69A      0.520195  
      70A      0.530019    71A      0.533579    72A      0.561383  
      73A      0.566785    74A      0.588199    75A      0.599324  
      76A      0.603614    77A      0.613978    78A      0.620991  
      79A      0.627723    80A      0.632193    81A      0.636803  
      82A      0.645987    83A      0.650069    84A      0.656866  
      85A      0.658155    86A      0.666594    87A      0.670088  
      88A      0.675427    89A      0.679802    90A      0.688517  
      91A      0.693672    92A      0.696755    93A      0.703800  
      94A      0.712740    95A      0.714917    96A      0.731759  
      97A      0.736890    98A      0.747367    99A      0.770700  
     100A      0.777423   101A      0.813008   102A      0.839365  
     103A      0.848684   104A      0.851675   105A      0.871278  
     106A      0.895141   107A      0.915578   108A      0.922400  
     109A      0.949136   110A      0.956411   111A      0.971978  
     112A      0.986095   113A      0.989385   114A      1.000468  
     115A      1.009745   116A      1.031909   117A      1.046670  
     118A      1.053957   119A      1.068831   120A      1.086212  
     121A      1.103377   122A      1.120330   123A      1.121970  
     124A      1.132813   125A      1.178720   126A      1.183957  
     127A      1.202912   128A      1.212850   129A      1.220869  
     130A      1.227682   131A      1.239326   132A      1.253148  
     133A      1.268945   134A      1.276890   135A      1.280461  
     136A      1.291586   137A      1.292780   138A      1.300765  
     139A      1.312667   140A      1.320923   141A      1.328274  
     142A      1.341578   143A      1.347485   144A      1.352974  
     145A      1.363847   146A      1.373175   147A      1.385011  
     148A      1.393839   149A      1.400363   150A      1.401696  
     151A      1.412038   152A      1.423554   153A      1.432026  
     154A      1.433737   155A      1.444635   156A      1.458839  
     157A      1.470658   158A      1.480193   159A      1.486801  
     160A      1.499536   161A      1.503602   162A      1.514752  
     163A      1.524774   164A      1.532928   165A      1.538859  
     166A      1.548467   167A      1.562446   168A      1.571655  
     169A      1.588399   170A      1.601233   171A      1.612322  
     172A      1.620510   173A      1.622193   174A      1.634179  
     175A      1.640979   176A      1.646303   177A      1.657026  
     178A      1.678835   179A      1.693136   180A      1.702253  
     181A      1.717539   182A      1.724963   183A      1.748858  
     184A      1.759830   185A      1.772014   186A      1.778734  
     187A      1.790342   188A      1.808372   189A      1.821504  
     190A      1.838450   191A      1.841574   192A      1.846304  
     193A      1.856910   194A      1.868132   195A      1.893463  
     196A      1.946894   197A      1.949072   198A      1.981849  
     199A      2.024211   200A      2.043059   201A      2.054920  
     202A      2.120500   203A      2.524102   204A      2.540275  
     205A      2.573455   206A      2.577127   207A      2.620171  
     208A      2.650992   209A      2.654429   210A      2.664890  
     211A      2.677232   212A      2.697401   213A      2.712195  
     214A      2.732494   215A      2.750221   216A      2.767193  
     217A      2.783289   218A      2.793919   219A      2.797917  
     220A      2.810476   221A      2.818069   222A      2.819305  
     223A      2.845408   224A      2.866732   225A      2.876109  
     226A      2.883993   227A      2.904861   228A      2.917116  
     229A      2.923781   230A      2.940413   231A      2.948776  
     232A      2.960880   233A      2.971053   234A      2.979643  
     235A      2.989486   236A      3.004050   237A      3.019907  
     238A      3.030429   239A      3.036796   240A      3.050422  
     241A      3.062669   242A      3.072378   243A      3.084070  
     244A      3.093885   245A      3.114493   246A      3.132639  
     247A      3.135356   248A      3.142186   249A      3.161006  
     250A      3.171789   251A      3.187439   252A      3.207980  
     253A      3.218083   254A      3.235696   255A      3.249940  
     256A      3.258453   257A      3.274936   258A      3.287522  
     259A      3.304291   260A      3.312965   261A      3.331609  
     262A      3.336876   263A      3.352755   264A      3.359322  
     265A      3.361712   266A      3.372781   267A      3.389202  
     268A      3.390132   269A      3.403791   270A      3.412119  
     271A      3.415819   272A      3.425374   273A      3.431906  
     274A      3.436155   275A      3.442902   276A      3.447568  
     277A      3.460084   278A      3.465741   279A      3.480432  
     280A      3.484663   281A      3.494019   282A      3.501011  
     283A      3.508385   284A      3.515670   285A      3.522328  
     286A      3.528060   287A      3.550377   288A      3.557597  
     289A      3.568152   290A      3.571760   291A      3.580384  
     292A      3.587567   293A      3.595063   294A      3.598796  
     295A      3.621458   296A      3.628549   297A      3.653725  
     298A      3.657545   299A      3.687172   300A      3.700739  
     301A      3.702596   302A      3.717335   303A      3.727435  
     304A      3.762354   305A      3.771612   306A      3.774781  
     307A      3.783392   308A      3.800119   309A      3.814415  
     310A      3.825438   311A      3.842629   312A      3.852849  
     313A      3.859674   314A      3.867932   315A      3.873490  
     316A      3.890119   317A      3.897672   318A      3.915339  
     319A      3.927296   320A      3.940976   321A      3.949541  
     322A      3.954316   323A      3.965840   324A      3.989778  
     325A      3.999414   326A      4.030885   327A      4.040820  
     328A      4.054202   329A      4.064945   330A      4.080049  
     331A      4.085403   332A      4.100063   333A      4.108885  
     334A      4.113629   335A      4.129111   336A      4.134797  
     337A      4.147132   338A      4.150429   339A      4.162622  
     340A      4.169898   341A      4.176333   342A      4.185860  
     343A      4.192103   344A      4.193424   345A      4.212895  
     346A      4.216891   347A      4.234985   348A      4.244513  
     349A      4.248837   350A      4.263051   351A      4.268176  
     352A      4.271063   353A      4.296782   354A      4.307662  
     355A      4.312198   356A      4.326000   357A      4.344527  
     358A      4.356171   359A      4.362252   360A      4.369620  
     361A      4.389366   362A      4.391566   363A      4.399952  
     364A      4.407939   365A      4.424554   366A      4.427757  
     367A      4.436902   368A      4.438574   369A      4.442771  
     370A      4.444171   371A      4.466108   372A      4.474285  
     373A      4.484349   374A      4.496685   375A      4.517431  
     376A      4.526404   377A      4.534660   378A      4.551899  
     379A      4.566300   380A      4.576807   381A      4.579811  
     382A      4.592945   383A      4.600767   384A      4.629240  
     385A      4.638056   386A      4.646155   387A      4.651900  
     388A      4.676547   389A      4.684603   390A      4.695444  
     391A      4.706804   392A      4.720593   393A      4.727150  
     394A      4.742466   395A      4.754636   396A      4.771043  
     397A      4.784838   398A      4.792746   399A      4.803501  
     400A      4.816214   401A      4.822558   402A      4.863426  
     403A      4.867075   404A      4.912594   405A      4.948238  
     406A      4.994404   407A      5.004875   408A      5.018724  
     409A      5.023527   410A      5.037545   411A      5.063946  
     412A      5.081650   413A      5.093632   414A      5.112824  
     415A      5.134226   416A      5.146418   417A      5.175212  
     418A      5.187848   419A      5.204780   420A      5.223399  
     421A      5.233114   422A      5.237896   423A      5.245157  
     424A      5.252731   425A      5.263832   426A      5.280077  
     427A      5.296232   428A      5.313515   429A      5.319934  
     430A      5.329883   431A      5.349635   432A      5.359006  
     433A      5.383781   434A      5.398640   435A      5.422451  
     436A      5.424877   437A      5.440292   438A      5.459272  
     439A      5.484341   440A      5.495389   441A      5.531540  
     442A      5.576723   443A      5.581866   444A      5.610825  
     445A      5.626114   446A      5.642412   447A      5.658726  
     448A      5.666498   449A      5.720688   450A      5.730441  
     451A      5.731355   452A      5.737502   453A      5.746370  
     454A      5.767601   455A      5.773714   456A      5.792465  
     457A      5.806141   458A      5.827262   459A      5.851298  
     460A      5.860045   461A      5.869542   462A      5.884240  
     463A      5.903161   464A      5.915530   465A      5.922566  
     466A      5.939295   467A      5.942951   468A      5.956170  
     469A      6.003076   470A      6.022576   471A      6.067028  
     472A      6.097917   473A      6.115244   474A      6.156961  
     475A      6.285566   476A      6.324449   477A      6.326786  
     478A      6.336572   479A      6.364271   480A      6.413425  
     481A      6.449805   482A      6.467123   483A      6.497103  
     484A      6.542434   485A     13.107694   486A     13.205352  
     487A     13.426405   488A     13.617551   489A     13.728087  
     490A     13.996440   491A     14.190328   492A     14.217716  

    Final Occupation by Irrep:
              A 
    DOCC [    33 ]

  Energy converged.

  @DF-RHF Final Energy:  -313.54226835768708

   => Energetics <=

    Nuclear Repulsion Energy =            389.2526814553207828
    One-Electron Energy =               -1193.6409044513134177
    Two-Electron Energy =                 490.8459546383055567
    DFT Exchange-Correlation Energy =       0.0000000000000000
    Empirical Dispersion Energy =           0.0000000000000000
    PCM Polarization Energy =               0.0000000000000000
    EFP Energy =                            0.0000000000000000
    Total Energy =                       -313.5422683576871350


  Saving occupied orbitals to File 180.

*** tstop() called on wr41 at Thu Sep 22 07:15:50 2016
Module time:
	user time   =     129.67 seconds =       2.16 minutes
	system time =       2.52 seconds =       0.04 minutes
	total time  =         13 seconds =       0.22 minutes
Total time:
	user time   =     129.67 seconds =       2.16 minutes
	system time =       2.52 seconds =       0.04 minutes
	total time  =         13 seconds =       0.22 minutes


Properties will be evaluated at   0.000000,   0.000000,   0.000000 Bohr

Properties computed using the SCF density matrix

  Nuclear Dipole Moment: (a.u.)
     X:     0.8996      Y:     1.2904      Z:     0.5604

  Electronic Dipole Moment: (a.u.)
     X:    -0.9194      Y:    -1.3009      Z:    -0.5938

  Dipole Moment: (a.u.)
     X:    -0.0197      Y:    -0.0105      Z:    -0.0333     Total:     0.0401

  Dipole Moment: (Debye)
     X:    -0.0501      Y:    -0.0267      Z:    -0.0847     Total:     0.1020


  //>>>>>>>>>>>>>>>>>>>>>>>>>>>>>>>>>>>//
  //               DFMP2               //
  //<<<<<<<<<<<<<<<<<<<<<<<<<<<<<<<<<<<//


*** tstart() called on wr41
*** at Thu Sep 22 07:15:50 2016


*** tstop() called on wr41 at Thu Sep 22 07:15:50 2016
Module time:
	user time   =       2.56 seconds =       0.04 minutes
	system time =       0.08 seconds =       0.00 minutes
	total time  =          0 seconds =       0.00 minutes
Total time:
	user time   =     132.62 seconds =       2.21 minutes
	system time =       2.61 seconds =       0.04 minutes
	total time  =         13 seconds =       0.22 minutes
	 --------------------------------------------------------
	                          DF-MP2                         
	      2nd-Order Density-Fitted Moller-Plesset Theory     
	              RMP2 Wavefunction,  12 Threads             
	                                                         
	        Rob Parrish, Justin Turney, Andy Simmonett,      
	           Ed Hohenstein, and C. David Sherrill          
	 --------------------------------------------------------

   => Auxiliary Basis Set <=

  Basis Set: 
    Number of shells: 364
    Number of basis function: 1188
    Number of Cartesian functions: 1438
    Spherical Harmonics?: true
    Max angular momentum: 4

	 --------------------------------------------------------
	                 NBF =   492, NAUX =  1188
	 --------------------------------------------------------
	   CLASS    FOCC     OCC    AOCC    AVIR     VIR    FVIR
	   PAIRS       8      33      25     459     459       0
	 --------------------------------------------------------

	-----------------------------------------------------------
	 ==================> DF-MP2 Energies <==================== 
	-----------------------------------------------------------
	 Reference Energy          =    -313.5422683576870782 [Eh]
	 Singles Energy            =      -0.0000000000002388 [Eh]
	 Same-Spin Energy          =      -0.3121166578366637 [Eh]
	 Opposite-Spin Energy      =      -1.1062929298458624 [Eh]
	 Correlation Energy        =      -1.4184095876827649 [Eh]
	 Total Energy              =    -314.9606779453698664 [Eh]
	-----------------------------------------------------------
	 ================> DF-SCS-MP2 Energies <================== 
	-----------------------------------------------------------
	 SCS Same-Spin Scale       =       0.3333333333333333 [-]
	 SCS Opposite-Spin Scale   =       1.2000000000000000 [-]
	 SCS Same-Spin Energy      =      -0.1040388859455546 [Eh]
	 SCS Opposite-Spin Energy  =      -1.3275515158150348 [Eh]
	 SCS Correlation Energy    =      -1.4315904017608283 [Eh]
	 SCS Total Energy          =    -314.9738587594479213 [Eh]
	-----------------------------------------------------------


  //>>>>>>>>>>>>>>>>>>>>>>>>>>>>>>>>>>>//
  //   CBS Computation: MP2 / CC-PVQZ  //
  //<<<<<<<<<<<<<<<<<<<<<<<<<<<<<<<<<<<//

    SCF Algorithm Type (re)set to DF.

*** tstart() called on wr41
*** at Thu Sep 22 07:16:00 2016


         ---------------------------------------------------------
                                   SCF
            by Justin Turney, Rob Parrish, and Andy Simmonett
                              RHF Reference
                       12 Threads,  60000 MiB Core
         ---------------------------------------------------------

  ==> Geometry <==

    Molecular point group: c1
    Full point group: C1

    Geometry (in Angstrom), charge = 0, multiplicity = 1:

       Center              X                  Y                   Z               Mass       
    ------------   -----------------  -----------------  -----------------  -----------------
           C          4.063921132264     0.348810712879     0.149748259052    12.000000000000
           H          4.825352597827     0.820399173995    -0.470960789777     1.007825032070
           H          4.380258166229    -0.675928658625     0.348324707907     1.007825032070
           H          4.033944327871     0.877153050207     1.103465063640     1.007825032070
           C         -2.911530778231     1.336583489365     0.518655029557    12.000000000000
           H         -3.404840181057     2.243280301789     0.169328848589     1.007825032070
           H         -1.941277105128     1.624261901672     0.923742950458     1.007825032070
           H         -3.504705445692     0.926027654081     1.337689004489     1.007825032070
           C          2.696537355539     0.370634917796    -0.522132190434    12.000000000000
           H          2.750298814736    -0.141917989350    -1.486299746053     1.007825032070
           H          2.406208877040     1.402747584484    -0.735859352329     1.007825032070
           C         -2.767645292327     0.318742570880    -0.607158659230    12.000000000000
           H         -3.745724507554     0.138465505260    -1.058581144040     1.007825032070
           H         -2.139499806131     0.733473796952    -1.398415656637     1.007825032070
           C          1.617846684498    -0.284236029051     0.331227013292    12.000000000000
           H          1.560293896398     0.229775295576     1.296400553821     1.007825032070
           H          1.906989559398    -1.317489244337     0.548803020444     1.007825032070
           C          0.243850380316    -0.272738389719    -0.326450027879    12.000000000000
           H          0.295718892236    -0.798992194563    -1.285709963663     1.007825032070
           H         -0.029889099574     0.761211245504    -0.555292650798     1.007825032070
           C         -0.829717949393    -0.915540517316     0.543475102154    12.000000000000
           H         -0.500932629682    -1.919945671081     0.825253169967     1.007825032070
           H         -0.919105499147    -0.353263234020     1.477011252100     1.007825032070
           C         -2.193858626448    -1.017857464264    -0.137571992047    12.000000000000
           H         -2.110359457272    -1.691220443318    -0.995460338588     1.007825032070
           H         -2.903075612424    -1.481600231325     0.554372761250     1.007825032070

  Running in c1 symmetry.

  Rotational constants: A =      0.15189  B =      0.02240  C =      0.02129 [cm^-1]
  Rotational constants: A =   4553.40933  B =    671.46139  C =    638.11515 [MHz]
  Nuclear repulsion =  389.252681455320783

  Charge       = 0
  Multiplicity = 1
  Electrons    = 66
  Nalpha       = 33
  Nbeta        = 33

  ==> Algorithm <==

  SCF Algorithm Type is DF.
  DIIS enabled.
  MOM disabled.
  Fractional occupation disabled.
  Guess Type is SAD.
  Energy threshold   = 1.00e-08
  Density threshold  = 1.00e-08
  Integral threshold = 0.00e+00

  ==> Primary Basis <==

  Basis Set: CC-PVQZ
    Number of shells: 300
    Number of basis function: 980
    Number of Cartesian functions: 1190
    Spherical Harmonics?: true
    Max angular momentum: 4

  ==> Pre-Iterations <==

   -------------------------------------------------------
    Irrep   Nso     Nmo     Nalpha   Nbeta   Ndocc  Nsocc
   -------------------------------------------------------
     A        980     980       0       0       0       0
   -------------------------------------------------------
    Total     980     980      33      33      33       0
   -------------------------------------------------------

  ==> Integral Setup <==

  ==> DFJK: Density-Fitted J/K Matrices <==

    J tasked:                  Yes
    K tasked:                  Yes
    wK tasked:                  No
    OpenMP threads:             12
    Integrals threads:          12
    Memory (MB):             42915
    Algorithm:                Core
    Integral Cache:           NONE
    Schwarz Cutoff:          1E-12
    Fitting Condition:       1E-12

   => Auxiliary Basis Set <=

  Basis Set: 
    Number of shells: 458
    Number of basis function: 1766
    Number of Cartesian functions: 2324
    Spherical Harmonics?: true
    Max angular momentum: 5

  Minimum eigenvalue in the overlap matrix is 4.3302896903E-05.
  Using Symmetric Orthogonalization.
  SCF Guess: Superposition of Atomic Densities via on-the-fly atomic UHF.

  ==> Iterations <==

                           Total Energy        Delta E     RMS |[F,P]|

   @DF-RHF iter   0:  -317.21166664786000   -3.17212e+02   5.72291e-03 
   @DF-RHF iter   1:  -313.34888853709316    3.86278e+00   5.21711e-04 
   @DF-RHF iter   2:  -313.53974557291934   -1.90857e-01   1.61758e-04 DIIS
   @DF-RHF iter   3:  -313.55869899160672   -1.89534e-02   6.57645e-05 DIIS
   @DF-RHF iter   4:  -313.56184522308644   -3.14623e-03   1.40582e-05 DIIS
   @DF-RHF iter   5:  -313.56203269440908   -1.87471e-04   3.17643e-06 DIIS
   @DF-RHF iter   6:  -313.56204374270538   -1.10483e-05   9.87582e-07 DIIS
   @DF-RHF iter   7:  -313.56204458965721   -8.46952e-07   2.25870e-07 DIIS
   @DF-RHF iter   8:  -313.56204464028946   -5.06323e-08   4.87486e-08 DIIS
   @DF-RHF iter   9:  -313.56204464294711   -2.65766e-09   1.37133e-08 DIIS
   @DF-RHF iter  10:  -313.56204464314527   -1.98156e-10   4.67232e-09 DIIS

  ==> Post-Iterations <==

    Orbital Energies (a.u.)
    -----------------------

    Doubly Occupied:                                                      

       1A    -11.211481     2A    -11.210883     3A    -11.209537  
       4A    -11.209220     5A    -11.208620     6A    -11.208042  
       7A    -11.206074     8A    -11.205909     9A     -1.094221  
      10A     -1.061350    11A     -1.008194    12A     -0.948527  
      13A     -0.882937    14A     -0.828625    15A     -0.788195  
      16A     -0.755952    17A     -0.654104    18A     -0.627225  
      19A     -0.619814    20A     -0.582356    21A     -0.573569  
      22A     -0.568166    23A     -0.537246    24A     -0.527823  
      25A     -0.520646    26A     -0.504177    27A     -0.483903  
      28A     -0.473938    29A     -0.469147    30A     -0.460412  
      31A     -0.450768    32A     -0.443959    33A     -0.430975  

    Virtual:                                                              

      34A      0.110908    35A      0.121414    36A      0.128792  
      37A      0.130656    38A      0.144401    39A      0.157804  
      40A      0.161488    41A      0.178826    42A      0.181700  
      43A      0.186570    44A      0.192274    45A      0.202058  
      46A      0.213100    47A      0.217764    48A      0.225574  
      49A      0.234372    50A      0.248133    51A      0.255407  
      52A      0.265578    53A      0.278404    54A      0.289267  
      55A      0.293606    56A      0.301379    57A      0.310804  
      58A      0.316141    59A      0.323927    60A      0.327270  
      61A      0.353325    62A      0.357030    63A      0.368708  
      64A      0.380643    65A      0.384377    66A      0.393745  
      67A      0.411013    68A      0.423488    69A      0.426438  
      70A      0.433480    71A      0.440474    72A      0.447147  
      73A      0.455290    74A      0.460690    75A      0.467063  
      76A      0.482399    77A      0.489325    78A      0.498429  
      79A      0.508816    80A      0.516687    81A      0.517810  
      82A      0.521905    83A      0.523352    84A      0.531434  
      85A      0.534082    86A      0.542525    87A      0.547991  
      88A      0.549837    89A      0.554803    90A      0.558442  
      91A      0.564565    92A      0.572806    93A      0.575484  
      94A      0.595463    95A      0.598038    96A      0.606841  
      97A      0.612353    98A      0.631566    99A      0.645051  
     100A      0.659938   101A      0.680518   102A      0.699633  
     103A      0.709513   104A      0.723722   105A      0.733478  
     106A      0.738351   107A      0.758406   108A      0.776249  
     109A      0.778177   110A      0.785832   111A      0.804584  
     112A      0.810744   113A      0.819492   114A      0.821341  
     115A      0.827436   116A      0.839611   117A      0.842594  
     118A      0.853604   119A      0.860909   120A      0.865853  
     121A      0.877511   122A      0.878504   123A      0.896664  
     124A      0.904713   125A      0.908277   126A      0.912836  
     127A      0.929631   128A      0.938486   129A      0.949968  
     130A      0.954761   131A      0.968717   132A      0.970101  
     133A      0.977191   134A      0.979807   135A      0.987381  
     136A      0.990848   137A      0.999356   138A      1.004112  
     139A      1.022218   140A      1.024864   141A      1.031060  
     142A      1.040089   143A      1.045807   144A      1.050611  
     145A      1.053091   146A      1.060740   147A      1.063160  
     148A      1.069120   149A      1.086688   150A      1.091892  
     151A      1.097167   152A      1.104873   153A      1.113179  
     154A      1.119366   155A      1.125689   156A      1.136563  
     157A      1.140985   158A      1.145695   159A      1.148787  
     160A      1.155517   161A      1.157000   162A      1.165106  
     163A      1.172934   164A      1.176705   165A      1.186382  
     166A      1.191840   167A      1.194260   168A      1.200387  
     169A      1.206399   170A      1.207994   171A      1.214482  
     172A      1.221342   173A      1.226126   174A      1.230845  
     175A      1.242283   176A      1.244081   177A      1.258123  
     178A      1.261129   179A      1.273941   180A      1.275203  
     181A      1.296755   182A      1.302808   183A      1.315036  
     184A      1.326614   185A      1.337184   186A      1.348080  
     187A      1.362989   188A      1.370339   189A      1.379811  
     190A      1.388623   191A      1.399325   192A      1.408090  
     193A      1.425475   194A      1.443448   195A      1.455662  
     196A      1.472884   197A      1.474331   198A      1.499843  
     199A      1.509879   200A      1.543487   201A      1.551089  
     202A      1.559405   203A      1.655493   204A      1.690385  
     205A      1.700681   206A      1.705276   207A      1.712133  
     208A      1.735608   209A      1.750075   210A      1.757847  
     211A      1.765179   212A      1.773411   213A      1.794140  
     214A      1.806617   215A      1.821137   216A      1.832079  
     217A      1.840767   218A      1.847150   219A      1.862858  
     220A      1.868154   221A      1.889393   222A      1.892778  
     223A      1.931916   224A      1.944004   225A      1.970558  
     226A      1.972530   227A      1.983933   228A      1.987139  
     229A      2.006163   230A      2.023390   231A      2.030438  
     232A      2.034871   233A      2.043590   234A      2.048161  
     235A      2.051288   236A      2.059298   237A      2.064255  
     238A      2.068285   239A      2.074620   240A      2.079586  
     241A      2.087790   242A      2.099328   243A      2.103300  
     244A      2.121072   245A      2.123835   246A      2.126574  
     247A      2.137114   248A      2.141359   249A      2.147569  
     250A      2.159530   251A      2.165815   252A      2.169908  
     253A      2.176599   254A      2.190243   255A      2.202860  
     256A      2.206085   257A      2.221297   258A      2.231753  
     259A      2.235502   260A      2.243126   261A      2.248010  
     262A      2.251841   263A      2.260752   264A      2.264053  
     265A      2.266365   266A      2.280215   267A      2.286373  
     268A      2.288901   269A      2.292693   270A      2.296263  
     271A      2.304856   272A      2.315259   273A      2.321632  
     274A      2.326760   275A      2.333370   276A      2.348191  
     277A      2.351813   278A      2.357025   279A      2.363959  
     280A      2.366943   281A      2.378043   282A      2.386851  
     283A      2.394837   284A      2.398701   285A      2.406452  
     286A      2.418047   287A      2.427343   288A      2.433351  
     289A      2.437893   290A      2.456305   291A      2.466883  
     292A      2.474174   293A      2.481380   294A      2.495331  
     295A      2.502496   296A      2.512967   297A      2.522540  
     298A      2.531994   299A      2.537510   300A      2.549492  
     301A      2.557196   302A      2.565422   303A      2.574971  
     304A      2.583020   305A      2.589338   306A      2.616363  
     307A      2.627860   308A      2.637761   309A      2.643369  
     310A      2.651965   311A      2.660346   312A      2.671848  
     313A      2.681434   314A      2.686782   315A      2.696516  
     316A      2.717838   317A      2.722043   318A      2.733020  
     319A      2.739302   320A      2.752396   321A      2.763911  
     322A      2.769334   323A      2.777401   324A      2.778494  
     325A      2.791781   326A      2.796398   327A      2.800481  
     328A      2.808323   329A      2.811543   330A      2.825957  
     331A      2.830654   332A      2.832488   333A      2.839810  
     334A      2.851904   335A      2.854808   336A      2.857435  
     337A      2.866547   338A      2.869284   339A      2.877643  
     340A      2.882463   341A      2.901843   342A      2.906159  
     343A      2.908368   344A      2.926192   345A      2.938600  
     346A      2.945573   347A      2.958003   348A      2.970244  
     349A      2.977221   350A      2.988659   351A      3.000876  
     352A      3.004973   353A      3.012668   354A      3.020723  
     355A      3.023441   356A      3.034872   357A      3.044784  
     358A      3.052827   359A      3.069504   360A      3.076804  
     361A      3.097133   362A      3.105573   363A      3.112324  
     364A      3.127403   365A      3.132168   366A      3.138714  
     367A      3.151905   368A      3.156870   369A      3.158793  
     370A      3.175983   371A      3.183142   372A      3.187181  
     373A      3.209606   374A      3.215194   375A      3.223440  
     376A      3.239252   377A      3.246826   378A      3.261226  
     379A      3.276737   380A      3.284451   381A      3.299800  
     382A      3.308185   383A      3.313492   384A      3.326036  
     385A      3.335209   386A      3.346545   387A      3.352368  
     388A      3.372293   389A      3.381129   390A      3.386474  
     391A      3.394383   392A      3.413284   393A      3.427398  
     394A      3.432716   395A      3.433669   396A      3.440059  
     397A      3.445552   398A      3.451956   399A      3.469444  
     400A      3.481390   401A      3.488080   402A      3.491827  
     403A      3.497974   404A      3.500130   405A      3.504382  
     406A      3.512189   407A      3.524370   408A      3.537402  
     409A      3.541679   410A      3.560072   411A      3.568506  
     412A      3.570029   413A      3.578558   414A      3.588578  
     415A      3.605672   416A      3.620356   417A      3.643648  
     418A      3.648136   419A      3.661927   420A      3.673268  
     421A      3.694283   422A      3.705528   423A      3.725684  
     424A      3.756110   425A      3.766984   426A      3.783819  
     427A      3.791579   428A      3.805903   429A      3.806926  
     430A      3.821097   431A      3.831691   432A      3.835237  
     433A      3.844540   434A      3.860748   435A      3.871620  
     436A      3.884117   437A      3.887657   438A      3.912486  
     439A      3.915296   440A      3.926735   441A      3.933497  
     442A      3.950640   443A      3.958871   444A      3.971498  
     445A      3.981624   446A      4.001620   447A      4.016497  
     448A      4.034541   449A      4.041144   450A      4.050889  
     451A      4.072678   452A      4.087781   453A      4.099087  
     454A      4.111275   455A      4.128454   456A      4.143591  
     457A      4.152578   458A      4.155953   459A      4.164083  
     460A      4.181235   461A      4.201954   462A      4.210743  
     463A      4.213937   464A      4.221293   465A      4.230489  
     466A      4.243255   467A      4.252452   468A      4.267290  
     469A      4.270728   470A      4.284514   471A      4.288865  
     472A      4.297783   473A      4.298654   474A      4.321112  
     475A      4.332214   476A      4.337967   477A      4.363838  
     478A      4.387117   479A      4.396483   480A      4.405942  
     481A      4.410412   482A      4.430108   483A      4.444386  
     484A      4.456830   485A      4.473634   486A      4.498607  
     487A      4.519267   488A      4.561168   489A      4.588459  
     490A      4.600497   491A      4.636733   492A      4.654499  
     493A      5.265330   494A      5.314730   495A      5.353660  
     496A      5.422366   497A      5.483770   498A      5.484695  
     499A      5.514906   500A      5.536894   501A      5.574070  
     502A      5.589541   503A      5.601262   504A      5.650420  
     505A      5.665457   506A      5.673589   507A      5.685810  
     508A      5.700954   509A      5.726444   510A      5.731745  
     511A      5.736920   512A      5.754487   513A      5.765087  
     514A      5.772480   515A      5.779489   516A      5.784581  
     517A      5.799554   518A      5.806289   519A      5.821919  
     520A      5.836756   521A      5.849681   522A      5.859234  
     523A      5.873287   524A      5.886222   525A      5.886567  
     526A      5.906029   527A      5.927575   528A      5.941666  
     529A      5.949220   530A      5.966649   531A      5.986917  
     532A      6.003753   533A      6.039824   534A      6.048190  
     535A      6.055787   536A      6.067402   537A      6.086578  
     538A      6.093743   539A      6.104042   540A      6.114796  
     541A      6.123829   542A      6.130984   543A      6.153734  
     544A      6.159398   545A      6.168849   546A      6.185528  
     547A      6.188131   548A      6.191021   549A      6.204238  
     550A      6.210332   551A      6.212611   552A      6.218938  
     553A      6.220494   554A      6.235391   555A      6.244748  
     556A      6.249495   557A      6.258835   558A      6.267965  
     559A      6.270930   560A      6.276237   561A      6.287153  
     562A      6.299368   563A      6.307331   564A      6.312888  
     565A      6.325771   566A      6.331849   567A      6.346112  
     568A      6.352427   569A      6.363035   570A      6.370815  
     571A      6.383409   572A      6.393089   573A      6.402616  
     574A      6.411911   575A      6.421988   576A      6.426135  
     577A      6.436545   578A      6.441380   579A      6.452493  
     580A      6.459256   581A      6.470525   582A      6.473580  
     583A      6.486023   584A      6.490225   585A      6.504380  
     586A      6.517487   587A      6.523022   588A      6.528903  
     589A      6.536807   590A      6.541201   591A      6.548630  
     592A      6.553108   593A      6.560703   594A      6.564806  
     595A      6.572820   596A      6.577680   597A      6.583379  
     598A      6.589553   599A      6.601157   600A      6.607873  
     601A      6.614499   602A      6.622684   603A      6.629460  
     604A      6.632340   605A      6.635171   606A      6.638273  
     607A      6.648908   608A      6.655721   609A      6.669881  
     610A      6.680220   611A      6.689064   612A      6.695088  
     613A      6.704152   614A      6.706715   615A      6.713436  
     616A      6.718885   617A      6.727774   618A      6.743168  
     619A      6.750288   620A      6.754532   621A      6.761539  
     622A      6.765144   623A      6.778283   624A      6.790178  
     625A      6.798340   626A      6.804472   627A      6.809408  
     628A      6.820634   629A      6.827501   630A      6.834926  
     631A      6.850002   632A      6.860035   633A      6.865209  
     634A      6.880885   635A      6.885517   636A      6.897307  
     637A      6.912457   638A      6.918787   639A      6.923227  
     640A      6.935675   641A      6.948747   642A      6.961910  
     643A      6.963450   644A      6.984352   645A      6.991198  
     646A      7.001827   647A      7.013478   648A      7.027238  
     649A      7.038279   650A      7.057237   651A      7.069306  
     652A      7.078278   653A      7.092126   654A      7.099640  
     655A      7.120455   656A      7.125328   657A      7.147431  
     658A      7.155635   659A      7.188941   660A      7.193022  
     661A      7.202849   662A      7.209478   663A      7.225266  
     664A      7.234645   665A      7.245193   666A      7.261419  
     667A      7.276728   668A      7.297621   669A      7.302721  
     670A      7.319299   671A      7.328308   672A      7.342189  
     673A      7.353471   674A      7.361122   675A      7.368074  
     676A      7.379862   677A      7.390353   678A      7.402124  
     679A      7.413284   680A      7.432193   681A      7.450958  
     682A      7.451639   683A      7.462700   684A      7.466868  
     685A      7.486959   686A      7.492741   687A      7.499187  
     688A      7.505106   689A      7.529079   690A      7.543353  
     691A      7.560947   692A      7.575734   693A      7.598616  
     694A      7.613211   695A      7.631187   696A      7.643835  
     697A      7.680809   698A      7.683937   699A      7.701876  
     700A      7.704982   701A      7.711234   702A      7.723110  
     703A      7.739975   704A      7.749173   705A      7.759016  
     706A      7.774733   707A      7.796218   708A      7.803283  
     709A      7.815540   710A      7.833278   711A      7.839182  
     712A      7.856003   713A      7.880728   714A      7.887677  
     715A      7.898609   716A      7.913467   717A      7.916289  
     718A      7.927456   719A      7.934017   720A      7.945550  
     721A      7.951660   722A      7.957843   723A      7.964649  
     724A      7.968868   725A      7.979407   726A      7.986595  
     727A      7.992544   728A      7.996967   729A      8.014175  
     730A      8.028589   731A      8.035282   732A      8.041636  
     733A      8.055473   734A      8.064531   735A      8.067386  
     736A      8.078581   737A      8.090632   738A      8.106788  
     739A      8.111381   740A      8.119009   741A      8.124814  
     742A      8.128531   743A      8.140114   744A      8.163702  
     745A      8.168930   746A      8.182560   747A      8.191584  
     748A      8.209132   749A      8.213831   750A      8.223380  
     751A      8.232357   752A      8.239684   753A      8.251499  
     754A      8.256520   755A      8.265722   756A      8.270799  
     757A      8.280229   758A      8.285154   759A      8.295419  
     760A      8.303332   761A      8.315513   762A      8.322583  
     763A      8.339759   764A      8.346665   765A      8.353528  
     766A      8.365355   767A      8.370634   768A      8.381921  
     769A      8.396670   770A      8.401715   771A      8.406365  
     772A      8.418458   773A      8.427783   774A      8.433868  
     775A      8.443599   776A      8.448415   777A      8.462052  
     778A      8.468782   779A      8.482553   780A      8.492344  
     781A      8.497317   782A      8.503674   783A      8.509189  
     784A      8.519233   785A      8.524495   786A      8.541737  
     787A      8.553794   788A      8.558653   789A      8.562501  
     790A      8.577383   791A      8.600902   792A      8.606687  
     793A      8.616263   794A      8.632145   795A      8.653105  
     796A      8.653630   797A      8.666937   798A      8.697541  
     799A      8.714379   800A      8.727900   801A      8.737725  
     802A      8.742544   803A      8.757233   804A      8.773623  
     805A      8.789155   806A      8.800237   807A      8.802693  
     808A      8.810615   809A      8.825363   810A      8.843531  
     811A      8.850207   812A      8.860479   813A      8.864221  
     814A      8.875376   815A      8.889667   816A      8.898212  
     817A      8.905794   818A      8.911560   819A      8.918364  
     820A      8.932246   821A      8.944555   822A      8.959370  
     823A      8.967661   824A      8.973546   825A      8.995385  
     826A      9.001891   827A      9.013264   828A      9.016129  
     829A      9.018574   830A      9.034611   831A      9.046104  
     832A      9.050151   833A      9.071861   834A      9.084117  
     835A      9.089911   836A      9.116593   837A      9.123352  
     838A      9.126324   839A      9.143985   840A      9.160725  
     841A      9.175219   842A      9.186790   843A      9.198216  
     844A      9.204521   845A      9.214556   846A      9.227193  
     847A      9.243225   848A      9.254935   849A      9.256815  
     850A      9.279006   851A      9.290470   852A      9.295443  
     853A      9.313423   854A      9.320084   855A      9.329111  
     856A      9.329381   857A      9.342632   858A      9.353075  
     859A      9.371119   860A      9.379324   861A      9.388836  
     862A      9.397157   863A      9.405743   864A      9.415427  
     865A      9.419406   866A      9.427497   867A      9.429961  
     868A      9.439187   869A      9.452552   870A      9.463265  
     871A      9.481718   872A      9.487303   873A      9.500780  
     874A      9.513157   875A      9.526558   876A      9.529755  
     877A      9.546569   878A      9.551598   879A      9.561940  
     880A      9.566545   881A      9.585092   882A      9.590620  
     883A      9.596915   884A      9.602662   885A      9.612956  
     886A      9.619858   887A      9.637889   888A      9.661815  
     889A      9.679563   890A      9.690032   891A      9.701385  
     892A      9.704568   893A      9.736315   894A      9.741989  
     895A      9.757385   896A      9.764889   897A      9.785049  
     898A      9.822709   899A      9.863860   900A      9.877480  
     901A     10.179198   902A     10.193226   903A     10.219753  
     904A     10.224904   905A     10.239474   906A     10.242191  
     907A     10.248277   908A     10.263693   909A     10.277460  
     910A     10.313905   911A     10.331618   912A     10.382531  
     913A     10.410732   914A     10.433800   915A     10.449499  
     916A     10.483201   917A     10.531007   918A     10.539885  
     919A     10.560872   920A     10.568980   921A     10.570923  
     922A     10.577236   923A     10.597123   924A     10.603748  
     925A     10.636762   926A     10.644652   927A     10.666159  
     928A     10.674971   929A     10.689175   930A     10.690522  
     931A     10.704957   932A     10.721432   933A     10.742903  
     934A     10.744171   935A     10.754367   936A     10.776888  
     937A     10.798180   938A     10.816060   939A     10.828661  
     940A     10.839493   941A     10.852346   942A     10.871233  
     943A     10.878339   944A     10.884929   945A     10.899296  
     946A     10.913495   947A     10.925921   948A     10.953235  
     949A     10.989504   950A     11.025809   951A     11.042462  
     952A     11.068378   953A     11.123644   954A     11.178867  
     955A     11.764584   956A     11.798117   957A     12.036712  
     958A     12.176688   959A     12.194275   960A     12.347832  
     961A     12.455484   962A     12.597405   963A     12.816792  
     964A     12.908472   965A     12.918457   966A     12.940630  
     967A     12.966182   968A     12.987535   969A     13.023990  
     970A     13.037079   971A     13.067537   972A     13.109752  
     973A     26.648699   974A     26.676048   975A     26.741705  
     976A     26.799318   977A     26.927973   978A     27.159210  
     979A     27.338404   980A     27.381512  

    Final Occupation by Irrep:
              A 
    DOCC [    33 ]

  Energy converged.

  @DF-RHF Final Energy:  -313.56204464314527

   => Energetics <=

    Nuclear Repulsion Energy =            389.2526814553207828
    One-Electron Energy =               -1193.6974805696650037
    Two-Electron Energy =                 490.8827544711989503
    DFT Exchange-Correlation Energy =       0.0000000000000000
    Empirical Dispersion Energy =           0.0000000000000000
    PCM Polarization Energy =               0.0000000000000000
    EFP Energy =                            0.0000000000000000
    Total Energy =                       -313.5620446431453274


  Saving occupied orbitals to File 180.

*** tstop() called on wr41 at Thu Sep 22 07:17:07 2016
Module time:
	user time   =     680.97 seconds =      11.35 minutes
	system time =       8.22 seconds =       0.14 minutes
	total time  =         67 seconds =       1.12 minutes
Total time:
	user time   =     867.13 seconds =      14.45 minutes
	system time =      12.27 seconds =       0.20 minutes
	total time  =         90 seconds =       1.50 minutes


Properties will be evaluated at   0.000000,   0.000000,   0.000000 Bohr

Properties computed using the SCF density matrix

  Nuclear Dipole Moment: (a.u.)
     X:     0.8996      Y:     1.2904      Z:     0.5604

  Electronic Dipole Moment: (a.u.)
     X:    -0.9197      Y:    -1.3012      Z:    -0.5944

  Dipole Moment: (a.u.)
     X:    -0.0200      Y:    -0.0108      Z:    -0.0340     Total:     0.0409

  Dipole Moment: (Debye)
     X:    -0.0509      Y:    -0.0274      Z:    -0.0865     Total:     0.1040


  //>>>>>>>>>>>>>>>>>>>>>>>>>>>>>>>>>>>//
  //               DFMP2               //
  //<<<<<<<<<<<<<<<<<<<<<<<<<<<<<<<<<<<//


*** tstart() called on wr41
*** at Thu Sep 22 07:17:07 2016


*** tstop() called on wr41 at Thu Sep 22 07:17:08 2016
Module time:
	user time   =       3.19 seconds =       0.05 minutes
	system time =       0.12 seconds =       0.00 minutes
	total time  =          1 seconds =       0.02 minutes
Total time:
	user time   =     870.47 seconds =      14.51 minutes
	system time =      12.39 seconds =       0.21 minutes
	total time  =         91 seconds =       1.52 minutes
	 --------------------------------------------------------
	                          DF-MP2                         
	      2nd-Order Density-Fitted Moller-Plesset Theory     
	              RMP2 Wavefunction,  12 Threads             
	                                                         
	        Rob Parrish, Justin Turney, Andy Simmonett,      
	           Ed Hohenstein, and C. David Sherrill          
	 --------------------------------------------------------

   => Auxiliary Basis Set <=

  Basis Set: 
    Number of shells: 510
    Number of basis function: 2046
    Number of Cartesian functions: 2708
    Spherical Harmonics?: true
    Max angular momentum: 5

	 --------------------------------------------------------
	                 NBF =   980, NAUX =  2046
	 --------------------------------------------------------
	   CLASS    FOCC     OCC    AOCC    AVIR     VIR    FVIR
	   PAIRS       8      33      25     947     947       0
	 --------------------------------------------------------

	-----------------------------------------------------------
	 ==================> DF-MP2 Energies <==================== 
	-----------------------------------------------------------
	 Reference Energy          =    -313.5620446431452706 [Eh]
	 Singles Energy            =      -0.0000000000014404 [Eh]
	 Same-Spin Energy          =      -0.3223569540544772 [Eh]
	 Opposite-Spin Energy      =      -1.1821511758704588 [Eh]
	 Correlation Energy        =      -1.5045081299263765 [Eh]
	 Total Energy              =    -315.0665527730716349 [Eh]
	-----------------------------------------------------------
	 ================> DF-SCS-MP2 Energies <================== 
	-----------------------------------------------------------
	 SCS Same-Spin Scale       =       0.3333333333333333 [-]
	 SCS Opposite-Spin Scale   =       1.2000000000000000 [-]
	 SCS Same-Spin Energy      =      -0.1074523180181590 [Eh]
	 SCS Opposite-Spin Energy  =      -1.4185814110445505 [Eh]
	 SCS Correlation Energy    =      -1.5260337290641499 [Eh]
	 SCS Total Energy          =    -315.0880783722093952 [Eh]
	-----------------------------------------------------------


  //>>>>>>>>>>>>>>>>>>>>>>>>>>>>>>>>>>>//
  //    CBS Results: custom function   //
  //<<<<<<<<<<<<<<<<<<<<<<<<<<<<<<<<<<<//


   ==> Helgaker 2-point SCF extrapolation for method: HF <==

   LO-zeta (3) Energy:               -313.542268357687
   HI-zeta (4) Energy:               -313.562044643145
   Alpha (exponent) Value:             1.630000000000
   Beta (coefficient) Value:           3.270021814656

   @Extrapolated HF/(T,Q):          -313.566863573258



   ==> Helgaker 2-point correlated extrapolation for method: MP2 <==

   LO-zeta (3) Energy:               -314.960677945370
   HI-zeta (4) Energy:               -315.066552773072
   Extrapolated Energy:              -315.143812782476

   @Extrapolated MP2/(T,Q):          -315.143812782476



   ==> Helgaker 2-point correlated extrapolation for method: HF <==

   LO-zeta (3) Energy:               -313.542268357687
   HI-zeta (4) Energy:               -313.562044643145
   Extrapolated Energy:              -313.576475986588

   @Extrapolated HF/(T,Q):           -313.576475986588


   ==> Components <==

  ---------------------------------------------------------------------------------------------------------
                          Method / Basis                      Rqd      Energy [Eh]   Variable
  ---------------------------------------------------------------------------------------------------------
                             mp2 / cc-pvtz                      *    -314.96067795   MP2 TOTAL ENERGY
                              hf / cc-pvtz                      *    -313.54226836   HF TOTAL ENERGY
                             mp2 / cc-pvqz                      *    -315.06655277   MP2 TOTAL ENERGY
                              hf / cc-pvqz                      *    -313.56204464   HF TOTAL ENERGY
  ---------------------------------------------------------------------------------------------------------

   ==> Stages <==

  ---------------------------------------------------------------------------------------------------------
      Stage               Method / Basis                       Wt      Energy [Eh]   Scheme
  ---------------------------------------------------------------------------------------------------------
        scf                   hf / cc-pv[tq]z                   1    -313.56686357   scf_xtpl_helgaker_2
       corl                  mp2 / cc-pv[tq]z                   1    -315.14381278   corl_xtpl_helgaker_2
       corl                   hf / cc-pv[tq]z                  -1    -313.57647599   corl_xtpl_helgaker_2
  ---------------------------------------------------------------------------------------------------------

   ==> CBS <==

  ---------------------------------------------------------------------------------------------------------
      Stage               Method / Basis                               Energy [Eh]   Scheme
  ---------------------------------------------------------------------------------------------------------
        scf                   hf / cc-pv[tq]z                        -313.56686357   scf_xtpl_helgaker_2
       corl                  mp2 / cc-pv[tq]z                          -1.56733680   corl_xtpl_helgaker_2
      total                  CBS                                     -315.13420037   
  ---------------------------------------------------------------------------------------------------------

*** Psi4 exiting successfully. Buy a developer a beer!
