    -----------------------------------------------------------------------
          Psi4: An Open-Source Ab Initio Electronic Structure Package
                              Psi4 1.0.0 Driver

                          Git: Rev {master} 6a9a71b dirty

    J. M. Turney, A. C. Simmonett, R. M. Parrish, E. G. Hohenstein,
    F. A. Evangelista, J. T. Fermann, B. J. Mintz, L. A. Burns, J. J. Wilke,
    M. L. Abrams, N. J. Russ, M. L. Leininger, C. L. Janssen, E. T. Seidl,
    W. D. Allen, H. F. Schaefer, R. A. King, E. F. Valeev, C. D. Sherrill,
    and T. D. Crawford, WIREs Comput. Mol. Sci. 2, 556-565 (2012)
    (doi: 10.1002/wcms.93)

                         Additional Contributions by
    A. E. DePrince, U. Bozkaya, A. Yu. Sokolov, D. G. A. Smith, R. Di Remigio,
    R. M. Richard, J. F. Gonthier, H. R. McAlexander, M. Saitow, and
    B. P. Pritchard
    -----------------------------------------------------------------------


    Psi4 started on: Thu Sep 22 07:15:35 2016

    Process ID:  22567
    PSI4DATADIR: /usr/local/hpc5/psi4conda/share/psi4
    Memory level set to 256.000 MB

  ==> Input File <==

--------------------------------------------------------------------------
memory 60 Gb

molecule molecule_07_psi {
0 1
    C           -3.808989302880     0.911362787594    -0.179384374409
    H           -4.123335391092     1.891287646693     0.178946538006
    H           -4.514284093820     0.171734897997     0.201570278541
    H           -3.885074629129     0.912087858894    -1.267525723842
    C            3.113343160414     1.451424241567     0.209784444967
    H            4.000056247410     1.989048283131    -0.125232605384
    H            3.105050070584     1.466399425600     1.301032533665
    H            2.241945044657     2.004941185402    -0.137842503124
    C           -2.388043063633     0.579959017297     0.260556962467
    H           -2.324913362481     0.596785773072     1.352517825407
    H           -1.707340018422     1.352272349779    -0.102585861212
    C            3.110718788838     0.016639815818    -0.307199115567
    H            3.080846030911     0.020168861011    -1.400326174338
    H            4.048271100127    -0.467386604800    -0.024786784455
    C           -1.937457290797    -0.787361501976    -0.241723002887
    H           -1.939983334937    -0.786002165556    -1.336765518764
    H           -2.675790476366    -1.533044911876     0.067714630268
    C           -0.558208832254    -1.208821442658     0.258837089478
    H           -0.355749759566    -2.234064914160    -0.064211699939
    H           -0.561288171587    -1.224337828192     1.353699004621
    C            0.575398858686    -0.310840491736    -0.224577609737
    H            0.550353340478    -0.256857536686    -1.318875464176
    H            0.420210753544     0.704965426936     0.142820334720
    C            1.943638860182    -0.814182900086     0.221371386063
    H            1.980164527714    -0.830665926890     1.315737594083
    H            2.060743923456    -1.850563156762    -0.108093250881
}

set globals {
  reference rhf
  freeze_core true
}
energy(cbs, corl_wfn='mp2', corl_basis='cc-pv[tq]z', scf_basis='cc-pv[tq]z', corl_scheme=corl_xtpl_helgaker_2, scf_scheme=scf_xtpl_helgaker_2)
--------------------------------------------------------------------------
/usr/local/hpc5/psi4conda/lib/python2.7/site-packages/v2rdm_casscf/v2rdm_casscf.so loaded.

  Memory set to  60.000 GiB by Python script.

  //>>>>>>>>>>>>>>>>>>>>>>>>>>>>>>>>>>>//
  //     CBS Setup: custom function    //
  //<<<<<<<<<<<<<<<<<<<<<<<<<<<<<<<<<<<//

    Naive listing of computations required.
             hf / cc-pvtz                  for  HF TOTAL ENERGY
             hf / cc-pvqz                  for  HF TOTAL ENERGY
            mp2 / cc-pvtz                  for  MP2 TOTAL ENERGY
            mp2 / cc-pvqz                  for  MP2 TOTAL ENERGY
             hf / cc-pvtz                  for  HF TOTAL ENERGY
             hf / cc-pvqz                  for  HF TOTAL ENERGY

    Enlightened listing of computations required.
            mp2 / cc-pvtz                  for  MP2 TOTAL ENERGY
            mp2 / cc-pvqz                  for  MP2 TOTAL ENERGY

    Full listing of computations to be obtained (required and bonus).
            mp2 / cc-pvtz                  for  MP2 TOTAL ENERGY
             hf / cc-pvtz                  for  HF TOTAL ENERGY
            mp2 / cc-pvqz                  for  MP2 TOTAL ENERGY
             hf / cc-pvqz                  for  HF TOTAL ENERGY

  //>>>>>>>>>>>>>>>>>>>>>>>>>>>>>>>>>>>//
  //   CBS Computation: MP2 / CC-PVTZ  //
  //<<<<<<<<<<<<<<<<<<<<<<<<<<<<<<<<<<<//

    SCF Algorithm Type (re)set to DF.

*** tstart() called on wr39
*** at Thu Sep 22 07:15:36 2016


         ---------------------------------------------------------
                                   SCF
            by Justin Turney, Rob Parrish, and Andy Simmonett
                              RHF Reference
                       12 Threads,  60000 MiB Core
         ---------------------------------------------------------

  ==> Geometry <==

    Molecular point group: c1
    Full point group: C1

    Geometry (in Angstrom), charge = 0, multiplicity = 1:

       Center              X                  Y                   Z               Mass       
    ------------   -----------------  -----------------  -----------------  -----------------
           C         -3.808989302880     0.911362787594    -0.179384374409    12.000000000000
           H         -4.123335391092     1.891287646693     0.178946538006     1.007825032070
           H         -4.514284093820     0.171734897997     0.201570278541     1.007825032070
           H         -3.885074629129     0.912087858894    -1.267525723842     1.007825032070
           C          3.113343160414     1.451424241567     0.209784444967    12.000000000000
           H          4.000056247410     1.989048283131    -0.125232605384     1.007825032070
           H          3.105050070584     1.466399425600     1.301032533665     1.007825032070
           H          2.241945044657     2.004941185402    -0.137842503124     1.007825032070
           C         -2.388043063633     0.579959017297     0.260556962467    12.000000000000
           H         -2.324913362481     0.596785773072     1.352517825407     1.007825032070
           H         -1.707340018422     1.352272349779    -0.102585861212     1.007825032070
           C          3.110718788838     0.016639815818    -0.307199115567    12.000000000000
           H          3.080846030911     0.020168861011    -1.400326174338     1.007825032070
           H          4.048271100127    -0.467386604800    -0.024786784455     1.007825032070
           C         -1.937457290797    -0.787361501976    -0.241723002887    12.000000000000
           H         -1.939983334937    -0.786002165556    -1.336765518764     1.007825032070
           H         -2.675790476366    -1.533044911876     0.067714630268     1.007825032070
           C         -0.558208832254    -1.208821442658     0.258837089478    12.000000000000
           H         -0.355749759566    -2.234064914160    -0.064211699939     1.007825032070
           H         -0.561288171587    -1.224337828192     1.353699004621     1.007825032070
           C          0.575398858686    -0.310840491736    -0.224577609737    12.000000000000
           H          0.550353340478    -0.256857536686    -1.318875464176     1.007825032070
           H          0.420210753544     0.704965426936     0.142820334720     1.007825032070
           C          1.943638860182    -0.814182900086     0.221371386063    12.000000000000
           H          1.980164527714    -0.830665926890     1.315737594083     1.007825032070
           H          2.060743923456    -1.850563156762    -0.108093250881     1.007825032070

  Running in c1 symmetry.

  Rotational constants: A =      0.13525  B =      0.02305  C =      0.02065 [cm^-1]
  Rotational constants: A =   4054.57399  B =    690.87603  C =    619.11592 [MHz]
  Nuclear repulsion =  387.382221367249997

  Charge       = 0
  Multiplicity = 1
  Electrons    = 66
  Nalpha       = 33
  Nbeta        = 33

  ==> Algorithm <==

  SCF Algorithm Type is DF.
  DIIS enabled.
  MOM disabled.
  Fractional occupation disabled.
  Guess Type is SAD.
  Energy threshold   = 1.00e-08
  Density threshold  = 1.00e-08
  Integral threshold = 0.00e+00

  ==> Primary Basis <==

  Basis Set: CC-PVTZ
    Number of shells: 188
    Number of basis function: 492
    Number of Cartesian functions: 550
    Spherical Harmonics?: true
    Max angular momentum: 3

  ==> Pre-Iterations <==

   -------------------------------------------------------
    Irrep   Nso     Nmo     Nalpha   Nbeta   Ndocc  Nsocc
   -------------------------------------------------------
     A        492     492       0       0       0       0
   -------------------------------------------------------
    Total     492     492      33      33      33       0
   -------------------------------------------------------

  ==> Integral Setup <==

  ==> DFJK: Density-Fitted J/K Matrices <==

    J tasked:                  Yes
    K tasked:                  Yes
    wK tasked:                  No
    OpenMP threads:             12
    Integrals threads:          12
    Memory (MB):             42915
    Algorithm:                Core
    Integral Cache:           NONE
    Schwarz Cutoff:          1E-12
    Fitting Condition:       1E-12

   => Auxiliary Basis Set <=

  Basis Set: 
    Number of shells: 380
    Number of basis function: 1172
    Number of Cartesian functions: 1398
    Spherical Harmonics?: true
    Max angular momentum: 4

  Minimum eigenvalue in the overlap matrix is 2.6438225456E-04.
  Using Symmetric Orthogonalization.
  SCF Guess: Superposition of Atomic Densities via on-the-fly atomic UHF.

  ==> Iterations <==

                           Total Energy        Delta E     RMS |[F,P]|

   @DF-RHF iter   0:  -317.61620105197034   -3.17616e+02   1.15805e-02 
   @DF-RHF iter   1:  -313.31967120343512    4.29653e+00   1.04774e-03 
   @DF-RHF iter   2:  -313.52209069172505   -2.02419e-01   3.14836e-04 DIIS
   @DF-RHF iter   3:  -313.53945383332376   -1.73631e-02   1.18413e-04 DIIS
   @DF-RHF iter   4:  -313.54217493485982   -2.72110e-03   2.69946e-05 DIIS
   @DF-RHF iter   5:  -313.54235603262470   -1.81098e-04   5.52778e-06 DIIS
   @DF-RHF iter   6:  -313.54236513396739   -9.10134e-06   1.58592e-06 DIIS
   @DF-RHF iter   7:  -313.54236574076589   -6.06798e-07   3.59129e-07 DIIS
   @DF-RHF iter   8:  -313.54236577143053   -3.06646e-08   8.84745e-08 DIIS
   @DF-RHF iter   9:  -313.54236577316664   -1.73611e-09   2.16004e-08 DIIS
   @DF-RHF iter  10:  -313.54236577326930   -1.02659e-10   6.53375e-09 DIIS

  ==> Post-Iterations <==

    Orbital Energies (a.u.)
    -----------------------

    Doubly Occupied:                                                      

       1A    -11.212828     2A    -11.212062     3A    -11.210614  
       4A    -11.210260     5A    -11.210004     6A    -11.208720  
       7A    -11.206906     8A    -11.206645     9A     -1.093888  
      10A     -1.061631    11A     -1.009783    12A     -0.947560  
      13A     -0.881209    14A     -0.830152    15A     -0.781148  
      16A     -0.767374    17A     -0.643363    18A     -0.632968  
      19A     -0.606331    20A     -0.593708    21A     -0.579999  
      22A     -0.561898    23A     -0.549441    24A     -0.521956  
      25A     -0.515976    26A     -0.500695    27A     -0.488226  
      28A     -0.475695    29A     -0.464063    30A     -0.459034  
      31A     -0.454029    32A     -0.440397    33A     -0.432829  

    Virtual:                                                              

      34A      0.141206    35A      0.150195    36A      0.156533  
      37A      0.161042    38A      0.171943    39A      0.186959  
      40A      0.192837    41A      0.209017    42A      0.214760  
      43A      0.219963    44A      0.228671    45A      0.236367  
      46A      0.245752    47A      0.257754    48A      0.263946  
      49A      0.270016    50A      0.275570    51A      0.281479  
      52A      0.315443    53A      0.336407    54A      0.347201  
      55A      0.355067    56A      0.359442    57A      0.369660  
      58A      0.383309    59A      0.390886    60A      0.401763  
      61A      0.418279    62A      0.424570    63A      0.431090  
      64A      0.458620    65A      0.472626    66A      0.477498  
      67A      0.487709    68A      0.498485    69A      0.521008  
      70A      0.540094    71A      0.546922    72A      0.553326  
      73A      0.575657    74A      0.580340    75A      0.591291  
      76A      0.597898    77A      0.614423    78A      0.620963  
      79A      0.623405    80A      0.627712    81A      0.643352  
      82A      0.647581    83A      0.650050    84A      0.656173  
      85A      0.661334    86A      0.663991    87A      0.668574  
      88A      0.672874    89A      0.677194    90A      0.683217  
      91A      0.692969    92A      0.698931    93A      0.706331  
      94A      0.711302    95A      0.718338    96A      0.739299  
      97A      0.740961    98A      0.755475    99A      0.765244  
     100A      0.773737   101A      0.805777   102A      0.822694  
     103A      0.846500   104A      0.857162   105A      0.874499  
     106A      0.894926   107A      0.918302   108A      0.925505  
     109A      0.941499   110A      0.947579   111A      0.962025  
     112A      0.976829   113A      0.988006   114A      1.004462  
     115A      1.013600   116A      1.040108   117A      1.045672  
     118A      1.052023   119A      1.077501   120A      1.087288  
     121A      1.096306   122A      1.103861   123A      1.126126  
     124A      1.128032   125A      1.147069   126A      1.182747  
     127A      1.195981   128A      1.210584   129A      1.222271  
     130A      1.232867   131A      1.236589   132A      1.242472  
     133A      1.257127   134A      1.261930   135A      1.272788  
     136A      1.291963   137A      1.301020   138A      1.308886  
     139A      1.316231   140A      1.324134   141A      1.330035  
     142A      1.338357   143A      1.343139   144A      1.366331  
     145A      1.370595   146A      1.380884   147A      1.390645  
     148A      1.393416   149A      1.396330   150A      1.410111  
     151A      1.414836   152A      1.421088   153A      1.428473  
     154A      1.432382   155A      1.439989   156A      1.446526  
     157A      1.470494   158A      1.479105   159A      1.482219  
     160A      1.491841   161A      1.506077   162A      1.507479  
     163A      1.515596   164A      1.525572   165A      1.532621  
     166A      1.541091   167A      1.544095   168A      1.562145  
     169A      1.579743   170A      1.588615   171A      1.596226  
     172A      1.608729   173A      1.621298   174A      1.632256  
     175A      1.640863   176A      1.651575   177A      1.665679  
     178A      1.688301   179A      1.690873   180A      1.707412  
     181A      1.720754   182A      1.728197   183A      1.739738  
     184A      1.746594   185A      1.754455   186A      1.776498  
     187A      1.793078   188A      1.802654   189A      1.830658  
     190A      1.836200   191A      1.841536   192A      1.847418  
     193A      1.858514   194A      1.875292   195A      1.900540  
     196A      1.918826   197A      1.930649   198A      1.976967  
     199A      2.027912   200A      2.054286   201A      2.062940  
     202A      2.112965   203A      2.527402   204A      2.536384  
     205A      2.561425   206A      2.597298   207A      2.626288  
     208A      2.641504   209A      2.653845   210A      2.673004  
     211A      2.681261   212A      2.697832   213A      2.719866  
     214A      2.734979   215A      2.753607   216A      2.754246  
     217A      2.769367   218A      2.777655   219A      2.790710  
     220A      2.797462   221A      2.818119   222A      2.831901  
     223A      2.837659   224A      2.859944   225A      2.867838  
     226A      2.873575   227A      2.889437   228A      2.906370  
     229A      2.919786   230A      2.927235   231A      2.948116  
     232A      2.955818   233A      2.971786   234A      2.983896  
     235A      2.987069   236A      3.012249   237A      3.015971  
     238A      3.026596   239A      3.032423   240A      3.049937  
     241A      3.060315   242A      3.071773   243A      3.077809  
     244A      3.102586   245A      3.120046   246A      3.129539  
     247A      3.142338   248A      3.147277   249A      3.151207  
     250A      3.176444   251A      3.195459   252A      3.202413  
     253A      3.220774   254A      3.232563   255A      3.248369  
     256A      3.255607   257A      3.264077   258A      3.271330  
     259A      3.300775   260A      3.310414   261A      3.317897  
     262A      3.327428   263A      3.344789   264A      3.352020  
     265A      3.361604   266A      3.372124   267A      3.380071  
     268A      3.389304   269A      3.396889   270A      3.411681  
     271A      3.415960   272A      3.423405   273A      3.431016  
     274A      3.438592   275A      3.451449   276A      3.452353  
     277A      3.461736   278A      3.467319   279A      3.478977  
     280A      3.484761   281A      3.485208   282A      3.499532  
     283A      3.519494   284A      3.523608   285A      3.529117  
     286A      3.538293   287A      3.539875   288A      3.547987  
     289A      3.555174   290A      3.570814   291A      3.582081  
     292A      3.586204   293A      3.591717   294A      3.597013  
     295A      3.615974   296A      3.624660   297A      3.635324  
     298A      3.657835   299A      3.678619   300A      3.684440  
     301A      3.695894   302A      3.711788   303A      3.728644  
     304A      3.762528   305A      3.765402   306A      3.771049  
     307A      3.780812   308A      3.788302   309A      3.801040  
     310A      3.824710   311A      3.830991   312A      3.846336  
     313A      3.856145   314A      3.868759   315A      3.886217  
     316A      3.898538   317A      3.907214   318A      3.922274  
     319A      3.927494   320A      3.929006   321A      3.940236  
     322A      3.958040   323A      3.968613   324A      3.984289  
     325A      3.994799   326A      3.999324   327A      4.024337  
     328A      4.036165   329A      4.058333   330A      4.084718  
     331A      4.094549   332A      4.097549   333A      4.103180  
     334A      4.117994   335A      4.125265   336A      4.130775  
     337A      4.140405   338A      4.151995   339A      4.157273  
     340A      4.166666   341A      4.170424   342A      4.171853  
     343A      4.197353   344A      4.204101   345A      4.211531  
     346A      4.215414   347A      4.221950   348A      4.233335  
     349A      4.249254   350A      4.260030   351A      4.276379  
     352A      4.282972   353A      4.294713   354A      4.306593  
     355A      4.318785   356A      4.323071   357A      4.335719  
     358A      4.343676   359A      4.364227   360A      4.371166  
     361A      4.378353   362A      4.395726   363A      4.400656  
     364A      4.410393   365A      4.421873   366A      4.434141  
     367A      4.438483   368A      4.455065   369A      4.460042  
     370A      4.468128   371A      4.473410   372A      4.488401  
     373A      4.495145   374A      4.499436   375A      4.514891  
     376A      4.521781   377A      4.530591   378A      4.533133  
     379A      4.549681   380A      4.559709   381A      4.573605  
     382A      4.589144   383A      4.602868   384A      4.612263  
     385A      4.625458   386A      4.629224   387A      4.651069  
     388A      4.662934   389A      4.676534   390A      4.687844  
     391A      4.691537   392A      4.701366   393A      4.712526  
     394A      4.748704   395A      4.752239   396A      4.766633  
     397A      4.783025   398A      4.790427   399A      4.814965  
     400A      4.832405   401A      4.845888   402A      4.884974  
     403A      4.891831   404A      4.955615   405A      4.960057  
     406A      4.976657   407A      4.988460   408A      5.010283  
     409A      5.034923   410A      5.044584   411A      5.065128  
     412A      5.084513   413A      5.099661   414A      5.115561  
     415A      5.133358   416A      5.139676   417A      5.156991  
     418A      5.177846   419A      5.182369   420A      5.216935  
     421A      5.221438   422A      5.237674   423A      5.247455  
     424A      5.252695   425A      5.258751   426A      5.274523  
     427A      5.296323   428A      5.311986   429A      5.323915  
     430A      5.351384   431A      5.359922   432A      5.371413  
     433A      5.381212   434A      5.396809   435A      5.403915  
     436A      5.427693   437A      5.435377   438A      5.452159  
     439A      5.493872   440A      5.501775   441A      5.523231  
     442A      5.548601   443A      5.575531   444A      5.608076  
     445A      5.616975   446A      5.623680   447A      5.643639  
     448A      5.652436   449A      5.725547   450A      5.727987  
     451A      5.736886   452A      5.742339   453A      5.760646  
     454A      5.769089   455A      5.778140   456A      5.813499  
     457A      5.814858   458A      5.825164   459A      5.835883  
     460A      5.869228   461A      5.877648   462A      5.886983  
     463A      5.907796   464A      5.910325   465A      5.920427  
     466A      5.932365   467A      5.952197   468A      5.965214  
     469A      5.995736   470A      6.027477   471A      6.067158  
     472A      6.092500   473A      6.108590   474A      6.143359  
     475A      6.304558   476A      6.312283   477A      6.325039  
     478A      6.345651   479A      6.370501   480A      6.388436  
     481A      6.421457   482A      6.461325   483A      6.488438  
     484A      6.532781   485A     13.068312   486A     13.168343  
     487A     13.288534   488A     13.585954   489A     13.856884  
     490A     13.960152   491A     14.189501   492A     14.207284  

    Final Occupation by Irrep:
              A 
    DOCC [    33 ]

  Energy converged.

  @DF-RHF Final Energy:  -313.54236577326930

   => Energetics <=

    Nuclear Repulsion Energy =            387.3822213672499970
    One-Electron Energy =               -1189.9063927820882327
    Two-Electron Energy =                 488.9818056415689398
    DFT Exchange-Correlation Energy =       0.0000000000000000
    Empirical Dispersion Energy =           0.0000000000000000
    PCM Polarization Energy =               0.0000000000000000
    EFP Energy =                            0.0000000000000000
    Total Energy =                       -313.5423657732693528


  Saving occupied orbitals to File 180.

*** tstop() called on wr39 at Thu Sep 22 07:15:50 2016
Module time:
	user time   =     138.63 seconds =       2.31 minutes
	system time =       2.65 seconds =       0.04 minutes
	total time  =         14 seconds =       0.23 minutes
Total time:
	user time   =     138.63 seconds =       2.31 minutes
	system time =       2.65 seconds =       0.04 minutes
	total time  =         14 seconds =       0.23 minutes


Properties will be evaluated at   0.000000,   0.000000,   0.000000 Bohr

Properties computed using the SCF density matrix

  Nuclear Dipole Moment: (a.u.)
     X:    -0.5626      Y:     1.8063      Z:     0.0261

  Electronic Dipole Moment: (a.u.)
     X:     0.5895      Y:    -1.8218      Z:    -0.0264

  Dipole Moment: (a.u.)
     X:     0.0269      Y:    -0.0155      Z:    -0.0003     Total:     0.0311

  Dipole Moment: (Debye)
     X:     0.0684      Y:    -0.0394      Z:    -0.0008     Total:     0.0789


  //>>>>>>>>>>>>>>>>>>>>>>>>>>>>>>>>>>>//
  //               DFMP2               //
  //<<<<<<<<<<<<<<<<<<<<<<<<<<<<<<<<<<<//


*** tstart() called on wr39
*** at Thu Sep 22 07:15:50 2016


*** tstop() called on wr39 at Thu Sep 22 07:15:50 2016
Module time:
	user time   =       2.71 seconds =       0.05 minutes
	system time =       0.11 seconds =       0.00 minutes
	total time  =          0 seconds =       0.00 minutes
Total time:
	user time   =     141.74 seconds =       2.36 minutes
	system time =       2.78 seconds =       0.05 minutes
	total time  =         14 seconds =       0.23 minutes
	 --------------------------------------------------------
	                          DF-MP2                         
	      2nd-Order Density-Fitted Moller-Plesset Theory     
	              RMP2 Wavefunction,  12 Threads             
	                                                         
	        Rob Parrish, Justin Turney, Andy Simmonett,      
	           Ed Hohenstein, and C. David Sherrill          
	 --------------------------------------------------------

   => Auxiliary Basis Set <=

  Basis Set: 
    Number of shells: 364
    Number of basis function: 1188
    Number of Cartesian functions: 1438
    Spherical Harmonics?: true
    Max angular momentum: 4

	 --------------------------------------------------------
	                 NBF =   492, NAUX =  1188
	 --------------------------------------------------------
	   CLASS    FOCC     OCC    AOCC    AVIR     VIR    FVIR
	   PAIRS       8      33      25     459     459       0
	 --------------------------------------------------------

	-----------------------------------------------------------
	 ==================> DF-MP2 Energies <==================== 
	-----------------------------------------------------------
	 Reference Energy          =    -313.5423657732692959 [Eh]
	 Singles Energy            =      -0.0000000000004761 [Eh]
	 Same-Spin Energy          =      -0.3117979642143784 [Eh]
	 Opposite-Spin Energy      =      -1.1059656962757862 [Eh]
	 Correlation Energy        =      -1.4177636604906407 [Eh]
	 Total Energy              =    -314.9601294337599597 [Eh]
	-----------------------------------------------------------
	 ================> DF-SCS-MP2 Energies <================== 
	-----------------------------------------------------------
	 SCS Same-Spin Scale       =       0.3333333333333333 [-]
	 SCS Opposite-Spin Scale   =       1.2000000000000000 [-]
	 SCS Same-Spin Energy      =      -0.1039326547381261 [Eh]
	 SCS Opposite-Spin Energy  =      -1.3271588355309434 [Eh]
	 SCS Correlation Energy    =      -1.4310914902695455 [Eh]
	 SCS Total Energy          =    -314.9734572635388190 [Eh]
	-----------------------------------------------------------


  //>>>>>>>>>>>>>>>>>>>>>>>>>>>>>>>>>>>//
  //   CBS Computation: MP2 / CC-PVQZ  //
  //<<<<<<<<<<<<<<<<<<<<<<<<<<<<<<<<<<<//

    SCF Algorithm Type (re)set to DF.

*** tstart() called on wr39
*** at Thu Sep 22 07:15:58 2016


         ---------------------------------------------------------
                                   SCF
            by Justin Turney, Rob Parrish, and Andy Simmonett
                              RHF Reference
                       12 Threads,  60000 MiB Core
         ---------------------------------------------------------

  ==> Geometry <==

    Molecular point group: c1
    Full point group: C1

    Geometry (in Angstrom), charge = 0, multiplicity = 1:

       Center              X                  Y                   Z               Mass       
    ------------   -----------------  -----------------  -----------------  -----------------
           C         -3.808989302880     0.911362787594    -0.179384374409    12.000000000000
           H         -4.123335391092     1.891287646693     0.178946538006     1.007825032070
           H         -4.514284093820     0.171734897997     0.201570278541     1.007825032070
           H         -3.885074629129     0.912087858894    -1.267525723842     1.007825032070
           C          3.113343160414     1.451424241567     0.209784444967    12.000000000000
           H          4.000056247410     1.989048283131    -0.125232605384     1.007825032070
           H          3.105050070584     1.466399425600     1.301032533665     1.007825032070
           H          2.241945044657     2.004941185402    -0.137842503124     1.007825032070
           C         -2.388043063633     0.579959017297     0.260556962467    12.000000000000
           H         -2.324913362481     0.596785773072     1.352517825407     1.007825032070
           H         -1.707340018422     1.352272349779    -0.102585861212     1.007825032070
           C          3.110718788838     0.016639815818    -0.307199115567    12.000000000000
           H          3.080846030911     0.020168861011    -1.400326174338     1.007825032070
           H          4.048271100127    -0.467386604800    -0.024786784455     1.007825032070
           C         -1.937457290797    -0.787361501976    -0.241723002887    12.000000000000
           H         -1.939983334937    -0.786002165556    -1.336765518764     1.007825032070
           H         -2.675790476366    -1.533044911876     0.067714630268     1.007825032070
           C         -0.558208832254    -1.208821442658     0.258837089478    12.000000000000
           H         -0.355749759566    -2.234064914160    -0.064211699939     1.007825032070
           H         -0.561288171587    -1.224337828192     1.353699004621     1.007825032070
           C          0.575398858686    -0.310840491736    -0.224577609737    12.000000000000
           H          0.550353340478    -0.256857536686    -1.318875464176     1.007825032070
           H          0.420210753544     0.704965426936     0.142820334720     1.007825032070
           C          1.943638860182    -0.814182900086     0.221371386063    12.000000000000
           H          1.980164527714    -0.830665926890     1.315737594083     1.007825032070
           H          2.060743923456    -1.850563156762    -0.108093250881     1.007825032070

  Running in c1 symmetry.

  Rotational constants: A =      0.13525  B =      0.02305  C =      0.02065 [cm^-1]
  Rotational constants: A =   4054.57399  B =    690.87603  C =    619.11592 [MHz]
  Nuclear repulsion =  387.382221367249997

  Charge       = 0
  Multiplicity = 1
  Electrons    = 66
  Nalpha       = 33
  Nbeta        = 33

  ==> Algorithm <==

  SCF Algorithm Type is DF.
  DIIS enabled.
  MOM disabled.
  Fractional occupation disabled.
  Guess Type is SAD.
  Energy threshold   = 1.00e-08
  Density threshold  = 1.00e-08
  Integral threshold = 0.00e+00

  ==> Primary Basis <==

  Basis Set: CC-PVQZ
    Number of shells: 300
    Number of basis function: 980
    Number of Cartesian functions: 1190
    Spherical Harmonics?: true
    Max angular momentum: 4

  ==> Pre-Iterations <==

   -------------------------------------------------------
    Irrep   Nso     Nmo     Nalpha   Nbeta   Ndocc  Nsocc
   -------------------------------------------------------
     A        980     980       0       0       0       0
   -------------------------------------------------------
    Total     980     980      33      33      33       0
   -------------------------------------------------------

  ==> Integral Setup <==

  ==> DFJK: Density-Fitted J/K Matrices <==

    J tasked:                  Yes
    K tasked:                  Yes
    wK tasked:                  No
    OpenMP threads:             12
    Integrals threads:          12
    Memory (MB):             42915
    Algorithm:                Core
    Integral Cache:           NONE
    Schwarz Cutoff:          1E-12
    Fitting Condition:       1E-12

   => Auxiliary Basis Set <=

  Basis Set: 
    Number of shells: 458
    Number of basis function: 1766
    Number of Cartesian functions: 2324
    Spherical Harmonics?: true
    Max angular momentum: 5

  Minimum eigenvalue in the overlap matrix is 4.5556914815E-05.
  Using Symmetric Orthogonalization.
  SCF Guess: Superposition of Atomic Densities via on-the-fly atomic UHF.

  ==> Iterations <==

                           Total Energy        Delta E     RMS |[F,P]|

   @DF-RHF iter   0:  -317.34817915243826   -3.17348e+02   5.78702e-03 
   @DF-RHF iter   1:  -313.37051004201970    3.97767e+00   4.76874e-04 
   @DF-RHF iter   2:  -313.54216479525002   -1.71655e-01   1.44051e-04 DIIS
   @DF-RHF iter   3:  -313.55999475461721   -1.78300e-02   5.34131e-05 DIIS
   @DF-RHF iter   4:  -313.56198963656033   -1.99488e-03   1.27166e-05 DIIS
   @DF-RHF iter   5:  -313.56213291318153   -1.43277e-04   2.55678e-06 DIIS
   @DF-RHF iter   6:  -313.56214025235232   -7.33917e-06   5.85254e-07 DIIS
   @DF-RHF iter   7:  -313.56214055368167   -3.01329e-07   1.65034e-07 DIIS
   @DF-RHF iter   8:  -313.56214057507981   -2.13981e-08   3.43537e-08 DIIS
   @DF-RHF iter   9:  -313.56214057623896   -1.15915e-09   9.86768e-09 DIIS

  ==> Post-Iterations <==

    Orbital Energies (a.u.)
    -----------------------

    Doubly Occupied:                                                      

       1A    -11.211722     2A    -11.210943     3A    -11.209506  
       4A    -11.209149     5A    -11.208895     6A    -11.207579  
       7A    -11.205922     8A    -11.205642     9A     -1.093571  
      10A     -1.061334    11A     -1.009510    12A     -0.947321  
      13A     -0.881011    14A     -0.830008    15A     -0.781044  
      16A     -0.767299    17A     -0.643408    18A     -0.633032  
      19A     -0.606402    20A     -0.593784    21A     -0.580059  
      22A     -0.561989    23A     -0.549522    24A     -0.522052  
      25A     -0.516094    26A     -0.500801    27A     -0.488339  
      28A     -0.475831    29A     -0.464224    30A     -0.459166  
      31A     -0.454204    32A     -0.440521    33A     -0.432900  

    Virtual:                                                              

      34A      0.112811    35A      0.122569    36A      0.128207  
      37A      0.131631    38A      0.144182    39A      0.155395  
      40A      0.162000    41A      0.173912    42A      0.181955  
      43A      0.187259    44A      0.195520    45A      0.201411  
      46A      0.215363    47A      0.218258    48A      0.224214  
      49A      0.233227    50A      0.237795    51A      0.250939  
      52A      0.269847    53A      0.280448    54A      0.286797  
      55A      0.290451    56A      0.306318    57A      0.309224  
      58A      0.315176    59A      0.325081    60A      0.334218  
      61A      0.344554    62A      0.354811    63A      0.361666  
      64A      0.382395    65A      0.400099    66A      0.406130  
      67A      0.412233    68A      0.418452    69A      0.425756  
      70A      0.437232    71A      0.443460    72A      0.449250  
      73A      0.455172    74A      0.459939    75A      0.472347  
      76A      0.475638    77A      0.492126    78A      0.501332  
      79A      0.503700    80A      0.516453    81A      0.521075  
      82A      0.524877    83A      0.527451    84A      0.529207  
      85A      0.535443    86A      0.539031    87A      0.544457  
      88A      0.546915    89A      0.549703    90A      0.556996  
      91A      0.567458    92A      0.577084    93A      0.585758  
      94A      0.590394    95A      0.596456    96A      0.611084  
      97A      0.621452    98A      0.632638    99A      0.638396  
     100A      0.648212   101A      0.676736   102A      0.694326  
     103A      0.711951   104A      0.721767   105A      0.734671  
     106A      0.739919   107A      0.751771   108A      0.772871  
     109A      0.776994   110A      0.786177   111A      0.798857  
     112A      0.806001   113A      0.815192   114A      0.822121  
     115A      0.825164   116A      0.838690   117A      0.845844  
     118A      0.853058   119A      0.859951   120A      0.870098  
     121A      0.877204   122A      0.879012   123A      0.889227  
     124A      0.898281   125A      0.905667   126A      0.915857  
     127A      0.925106   128A      0.936550   129A      0.941443  
     130A      0.952616   131A      0.954590   132A      0.965741  
     133A      0.970231   134A      0.972933   135A      0.981625  
     136A      0.995558   137A      0.999967   138A      1.010740  
     139A      1.014917   140A      1.026462   141A      1.034949  
     142A      1.041647   143A      1.047605   144A      1.054250  
     145A      1.056337   146A      1.059012   147A      1.067453  
     148A      1.079085   149A      1.084609   150A      1.089552  
     151A      1.092943   152A      1.108954   153A      1.117442  
     154A      1.121131   155A      1.128734   156A      1.134242  
     157A      1.139487   158A      1.143697   159A      1.149879  
     160A      1.152055   161A      1.163166   162A      1.167435  
     163A      1.168345   164A      1.171741   165A      1.178295  
     166A      1.185136   167A      1.189843   168A      1.195295  
     169A      1.201699   170A      1.207165   171A      1.212916  
     172A      1.218677   173A      1.220373   174A      1.232574  
     175A      1.240372   176A      1.253140   177A      1.255087  
     178A      1.264281   179A      1.274715   180A      1.279060  
     181A      1.297280   182A      1.298036   183A      1.306531  
     184A      1.311417   185A      1.326501   186A      1.341930  
     187A      1.347322   188A      1.362296   189A      1.374860  
     190A      1.385368   191A      1.392106   192A      1.412943  
     193A      1.423971   194A      1.434628   195A      1.464593  
     196A      1.471332   197A      1.482991   198A      1.498282  
     199A      1.512787   200A      1.556189   201A      1.573085  
     202A      1.608173   203A      1.630016   204A      1.676225  
     205A      1.684602   206A      1.698292   207A      1.710518  
     208A      1.723392   209A      1.739938   210A      1.751022  
     211A      1.764552   212A      1.778120   213A      1.788692  
     214A      1.793453   215A      1.808129   216A      1.830910  
     217A      1.834915   218A      1.849711   219A      1.869958  
     220A      1.874839   221A      1.894191   222A      1.912957  
     223A      1.916810   224A      1.942754   225A      1.960778  
     226A      1.971557   227A      1.973823   228A      1.985633  
     229A      1.993612   230A      2.006478   231A      2.018743  
     232A      2.026332   233A      2.031141   234A      2.036111  
     235A      2.047121   236A      2.051942   237A      2.058717  
     238A      2.064315   239A      2.072843   240A      2.082250  
     241A      2.095162   242A      2.102470   243A      2.110835  
     244A      2.122380   245A      2.126227   246A      2.128308  
     247A      2.138677   248A      2.141681   249A      2.149967  
     250A      2.153426   251A      2.171702   252A      2.179317  
     253A      2.191101   254A      2.197938   255A      2.204165  
     256A      2.211384   257A      2.219869   258A      2.224803  
     259A      2.228747   260A      2.235157   261A      2.241470  
     262A      2.246495   263A      2.255492   264A      2.260550  
     265A      2.262358   266A      2.270533   267A      2.276506  
     268A      2.285129   269A      2.296281   270A      2.297805  
     271A      2.299820   272A      2.312057   273A      2.320533  
     274A      2.333451   275A      2.343323   276A      2.350011  
     277A      2.354595   278A      2.357616   279A      2.366427  
     280A      2.372319   281A      2.378681   282A      2.384230  
     283A      2.386718   284A      2.393266   285A      2.404897  
     286A      2.410429   287A      2.418565   288A      2.420288  
     289A      2.440886   290A      2.447904   291A      2.468117  
     292A      2.478034   293A      2.481341   294A      2.484811  
     295A      2.487931   296A      2.500102   297A      2.519336  
     298A      2.520151   299A      2.532279   300A      2.540156  
     301A      2.545113   302A      2.556482   303A      2.570759  
     304A      2.579583   305A      2.590651   306A      2.611951  
     307A      2.619682   308A      2.621189   309A      2.629039  
     310A      2.642059   311A      2.652915   312A      2.658981  
     313A      2.681917   314A      2.687710   315A      2.697038  
     316A      2.710876   317A      2.730015   318A      2.736547  
     319A      2.741788   320A      2.753441   321A      2.757936  
     322A      2.758999   323A      2.771381   324A      2.781509  
     325A      2.789076   326A      2.795928   327A      2.799530  
     328A      2.801719   329A      2.814525   330A      2.825841  
     331A      2.826537   332A      2.834225   333A      2.838975  
     334A      2.847115   335A      2.856919   336A      2.868104  
     337A      2.871264   338A      2.875261   339A      2.884259  
     340A      2.899556   341A      2.906361   342A      2.909661  
     343A      2.915583   344A      2.920814   345A      2.935030  
     346A      2.955750   347A      2.961509   348A      2.967565  
     349A      2.973333   350A      2.979260   351A      2.988267  
     352A      2.997676   353A      3.007788   354A      3.014729  
     355A      3.020800   356A      3.027216   357A      3.042799  
     358A      3.061518   359A      3.075005   360A      3.079393  
     361A      3.089212   362A      3.108671   363A      3.115336  
     364A      3.131878   365A      3.135918   366A      3.144436  
     367A      3.148535   368A      3.161111   369A      3.164732  
     370A      3.175348   371A      3.181260   372A      3.195402  
     373A      3.205587   374A      3.216194   375A      3.229822  
     376A      3.230592   377A      3.243501   378A      3.248678  
     379A      3.261959   380A      3.269811   381A      3.284961  
     382A      3.287638   383A      3.299465   384A      3.317036  
     385A      3.327313   386A      3.341548   387A      3.343793  
     388A      3.361024   389A      3.378902   390A      3.380762  
     391A      3.386660   392A      3.393183   393A      3.411048  
     394A      3.412674   395A      3.419507   396A      3.437542  
     397A      3.444418   398A      3.455378   399A      3.460924  
     400A      3.471438   401A      3.477199   402A      3.485127  
     403A      3.490700   404A      3.507195   405A      3.512109  
     406A      3.518809   407A      3.526780   408A      3.530706  
     409A      3.550825   410A      3.556890   411A      3.566333  
     412A      3.580426   413A      3.585218   414A      3.590413  
     415A      3.620963   416A      3.623740   417A      3.641639  
     418A      3.650736   419A      3.684421   420A      3.687451  
     421A      3.696466   422A      3.713688   423A      3.738830  
     424A      3.745627   425A      3.751640   426A      3.764911  
     427A      3.781224   428A      3.800907   429A      3.802537  
     430A      3.810012   431A      3.829700   432A      3.844206  
     433A      3.851960   434A      3.860888   435A      3.870903  
     436A      3.884704   437A      3.893928   438A      3.905829  
     439A      3.922793   440A      3.933345   441A      3.937901  
     442A      3.947805   443A      3.960117   444A      3.974352  
     445A      3.991525   446A      3.995252   447A      4.010257  
     448A      4.030511   449A      4.036452   450A      4.054707  
     451A      4.063659   452A      4.083686   453A      4.100841  
     454A      4.111360   455A      4.119518   456A      4.125104  
     457A      4.139516   458A      4.154677   459A      4.184621  
     460A      4.193741   461A      4.201671   462A      4.214229  
     463A      4.217982   464A      4.225820   465A      4.234660  
     466A      4.244996   467A      4.251157   468A      4.264417  
     469A      4.273855   470A      4.278500   471A      4.287666  
     472A      4.295252   473A      4.309894   474A      4.310439  
     475A      4.329929   476A      4.336677   477A      4.354019  
     478A      4.374087   479A      4.382533   480A      4.403780  
     481A      4.408361   482A      4.411905   483A      4.426950  
     484A      4.460991   485A      4.479006   486A      4.496628  
     487A      4.523428   488A      4.554976   489A      4.574148  
     490A      4.601179   491A      4.605250   492A      4.623289  
     493A      5.263378   494A      5.329582   495A      5.374270  
     496A      5.409329   497A      5.463207   498A      5.471546  
     499A      5.489094   500A      5.542851   501A      5.560323  
     502A      5.591582   503A      5.619371   504A      5.646370  
     505A      5.661733   506A      5.680084   507A      5.696733  
     508A      5.705944   509A      5.716551   510A      5.734835  
     511A      5.745355   512A      5.756867   513A      5.768453  
     514A      5.775728   515A      5.784152   516A      5.789477  
     517A      5.795317   518A      5.820744   519A      5.823587  
     520A      5.827101   521A      5.838425   522A      5.853152  
     523A      5.864874   524A      5.876509   525A      5.890160  
     526A      5.907325   527A      5.920308   528A      5.930362  
     529A      5.951673   530A      5.977823   531A      5.986954  
     532A      5.997234   533A      6.020297   534A      6.042798  
     535A      6.045379   536A      6.059190   537A      6.065728  
     538A      6.072196   539A      6.084981   540A      6.108299  
     541A      6.127184   542A      6.133753   543A      6.147051  
     544A      6.148825   545A      6.166879   546A      6.185803  
     547A      6.189989   548A      6.193098   549A      6.204338  
     550A      6.209074   551A      6.212285   552A      6.219302  
     553A      6.235851   554A      6.239377   555A      6.250029  
     556A      6.251668   557A      6.261466   558A      6.268309  
     559A      6.273028   560A      6.276511   561A      6.284448  
     562A      6.293975   563A      6.296818   564A      6.299202  
     565A      6.310956   566A      6.317274   567A      6.319396  
     568A      6.347536   569A      6.361188   570A      6.374523  
     571A      6.386202   572A      6.399958   573A      6.402788  
     574A      6.412140   575A      6.418232   576A      6.423356  
     577A      6.432662   578A      6.439659   579A      6.447372  
     580A      6.459091   581A      6.465450   582A      6.470682  
     583A      6.485664   584A      6.495253   585A      6.495678  
     586A      6.503023   587A      6.522828   588A      6.525854  
     589A      6.536212   590A      6.538505   591A      6.548857  
     592A      6.551344   593A      6.557530   594A      6.570588  
     595A      6.573947   596A      6.582096   597A      6.585778  
     598A      6.591542   599A      6.603837   600A      6.609907  
     601A      6.617501   602A      6.623345   603A      6.624502  
     604A      6.632080   605A      6.637088   606A      6.639881  
     607A      6.649794   608A      6.661141   609A      6.663296  
     610A      6.668426   611A      6.685678   612A      6.689658  
     613A      6.692101   614A      6.711273   615A      6.717512  
     616A      6.723675   617A      6.727120   618A      6.739182  
     619A      6.742501   620A      6.753679   621A      6.765042  
     622A      6.772462   623A      6.775465   624A      6.785071  
     625A      6.791520   626A      6.805014   627A      6.814690  
     628A      6.826569   629A      6.835144   630A      6.837744  
     631A      6.846707   632A      6.859468   633A      6.860391  
     634A      6.871621   635A      6.882970   636A      6.894942  
     637A      6.911905   638A      6.918801   639A      6.921232  
     640A      6.942434   641A      6.947638   642A      6.951888  
     643A      6.966110   644A      6.980252   645A      6.985112  
     646A      6.999279   647A      7.018304   648A      7.026440  
     649A      7.035828   650A      7.057135   651A      7.062908  
     652A      7.081880   653A      7.098079   654A      7.110631  
     655A      7.118941   656A      7.128264   657A      7.154830  
     658A      7.159996   659A      7.177923   660A      7.189260  
     661A      7.197070   662A      7.206385   663A      7.219606  
     664A      7.224067   665A      7.238528   666A      7.245952  
     667A      7.262870   668A      7.279883   669A      7.296015  
     670A      7.309123   671A      7.323218   672A      7.334846  
     673A      7.358586   674A      7.359354   675A      7.378370  
     676A      7.383258   677A      7.394689   678A      7.414106  
     679A      7.426890   680A      7.432971   681A      7.438763  
     682A      7.442693   683A      7.469180   684A      7.476593  
     685A      7.485514   686A      7.487437   687A      7.496958  
     688A      7.513773   689A      7.521666   690A      7.535527  
     691A      7.543772   692A      7.577972   693A      7.588369  
     694A      7.633815   695A      7.648168   696A      7.665033  
     697A      7.677474   698A      7.688268   699A      7.703214  
     700A      7.705693   701A      7.715921   702A      7.722417  
     703A      7.731960   704A      7.741746   705A      7.758047  
     706A      7.785177   707A      7.789020   708A      7.799928  
     709A      7.806881   710A      7.827142   711A      7.842114  
     712A      7.854396   713A      7.875249   714A      7.881674  
     715A      7.886712   716A      7.899052   717A      7.907539  
     718A      7.922327   719A      7.924118   720A      7.938975  
     721A      7.948882   722A      7.953250   723A      7.962753  
     724A      7.974758   725A      7.986413   726A      7.990004  
     727A      7.997464   728A      8.004463   729A      8.013451  
     730A      8.028934   731A      8.033269   732A      8.042931  
     733A      8.046364   734A      8.056588   735A      8.069352  
     736A      8.071680   737A      8.077672   738A      8.093601  
     739A      8.102015   740A      8.104839   741A      8.116722  
     742A      8.137847   743A      8.139227   744A      8.159860  
     745A      8.172482   746A      8.185887   747A      8.190544  
     748A      8.205856   749A      8.214243   750A      8.228398  
     751A      8.235549   752A      8.245190   753A      8.252877  
     754A      8.259579   755A      8.263909   756A      8.266913  
     757A      8.276459   758A      8.288256   759A      8.296770  
     760A      8.304283   761A      8.321087   762A      8.322753  
     763A      8.328778   764A      8.341932   765A      8.347540  
     766A      8.357934   767A      8.371326   768A      8.374383  
     769A      8.382107   770A      8.398913   771A      8.401761  
     772A      8.414371   773A      8.417468   774A      8.443640  
     775A      8.445621   776A      8.458298   777A      8.459745  
     778A      8.471728   779A      8.475013   780A      8.486295  
     781A      8.493663   782A      8.500446   783A      8.507673  
     784A      8.513995   785A      8.538180   786A      8.539461  
     787A      8.544728   788A      8.559009   789A      8.572674  
     790A      8.580552   791A      8.602797   792A      8.619362  
     793A      8.630989   794A      8.648275   795A      8.649185  
     796A      8.667189   797A      8.671803   798A      8.692104  
     799A      8.703976   800A      8.725559   801A      8.744814  
     802A      8.751722   803A      8.764487   804A      8.774265  
     805A      8.782711   806A      8.789320   807A      8.806421  
     808A      8.808842   809A      8.817863   810A      8.826870  
     811A      8.847232   812A      8.849516   813A      8.858134  
     814A      8.859316   815A      8.863926   816A      8.887943  
     817A      8.888711   818A      8.914520   819A      8.924027  
     820A      8.929396   821A      8.948154   822A      8.950831  
     823A      8.966298   824A      8.985834   825A      8.990696  
     826A      8.995008   827A      9.010979   828A      9.021096  
     829A      9.022846   830A      9.041995   831A      9.046703  
     832A      9.048384   833A      9.068552   834A      9.076914  
     835A      9.084683   836A      9.098061   837A      9.131124  
     838A      9.142040   839A      9.150607   840A      9.161355  
     841A      9.172811   842A      9.181800   843A      9.191132  
     844A      9.194055   845A      9.211836   846A      9.227759  
     847A      9.238285   848A      9.244422   849A      9.261937  
     850A      9.278344   851A      9.285607   852A      9.295079  
     853A      9.306822   854A      9.317744   855A      9.321456  
     856A      9.333669   857A      9.352591   858A      9.353647  
     859A      9.357712   860A      9.365863   861A      9.377162  
     862A      9.391442   863A      9.401028   864A      9.404330  
     865A      9.414824   866A      9.423577   867A      9.429546  
     868A      9.440365   869A      9.462548   870A      9.471131  
     871A      9.479789   872A      9.481511   873A      9.496491  
     874A      9.501701   875A      9.512103   876A      9.522313  
     877A      9.530591   878A      9.543692   879A      9.555288  
     880A      9.557597   881A      9.578953   882A      9.583762  
     883A      9.588466   884A      9.597326   885A      9.607365  
     886A      9.625050   887A      9.643758   888A      9.648965  
     889A      9.660278   890A      9.677066   891A      9.714676  
     892A      9.722499   893A      9.737974   894A      9.745857  
     895A      9.774196   896A      9.790621   897A      9.800816  
     898A      9.811652   899A      9.823447   900A      9.892212  
     901A     10.190380   902A     10.203165   903A     10.211370  
     904A     10.220875   905A     10.231507   906A     10.243262  
     907A     10.244717   908A     10.256964   909A     10.275791  
     910A     10.295010   911A     10.320011   912A     10.384920  
     913A     10.414524   914A     10.430849   915A     10.478643  
     916A     10.482363   917A     10.495995   918A     10.527927  
     919A     10.552489   920A     10.568599   921A     10.571743  
     922A     10.578240   923A     10.599467   924A     10.617294  
     925A     10.631344   926A     10.660291   927A     10.664926  
     928A     10.679772   929A     10.683222   930A     10.700424  
     931A     10.705913   932A     10.726893   933A     10.738303  
     934A     10.746962   935A     10.760215   936A     10.771111  
     937A     10.788215   938A     10.811679   939A     10.820085  
     940A     10.836344   941A     10.852209   942A     10.871886  
     943A     10.875190   944A     10.888391   945A     10.898358  
     946A     10.905325   947A     10.919648   948A     10.940828  
     949A     10.982597   950A     11.041289   951A     11.049858  
     952A     11.071408   953A     11.126652   954A     11.129919  
     955A     11.772984   956A     11.785691   957A     12.055935  
     958A     12.153903   959A     12.226287   960A     12.320315  
     961A     12.448269   962A     12.572343   963A     12.859269  
     964A     12.886806   965A     12.900324   966A     12.942408  
     967A     12.962001   968A     12.979497   969A     13.006665  
     970A     13.032813   971A     13.063324   972A     13.092815  
     973A     26.636870   974A     26.677611   975A     26.735046  
     976A     26.783864   977A     26.939099   978A     27.160930  
     979A     27.332904   980A     27.368478  

    Final Occupation by Irrep:
              A 
    DOCC [    33 ]

  Energy converged.

  @DF-RHF Final Energy:  -313.56214057623896

   => Energetics <=

    Nuclear Repulsion Energy =            387.3822213672499970
    One-Electron Energy =               -1189.9631513454144169
    Two-Electron Energy =                 489.0187894019254600
    DFT Exchange-Correlation Energy =       0.0000000000000000
    Empirical Dispersion Energy =           0.0000000000000000
    PCM Polarization Energy =               0.0000000000000000
    EFP Energy =                            0.0000000000000000
    Total Energy =                       -313.5621405762390168


  Saving occupied orbitals to File 180.

*** tstop() called on wr39 at Thu Sep 22 07:16:59 2016
Module time:
	user time   =     614.54 seconds =      10.24 minutes
	system time =       7.13 seconds =       0.12 minutes
	total time  =         61 seconds =       1.02 minutes
Total time:
	user time   =     813.04 seconds =      13.55 minutes
	system time =      12.10 seconds =       0.20 minutes
	total time  =         83 seconds =       1.38 minutes


Properties will be evaluated at   0.000000,   0.000000,   0.000000 Bohr

Properties computed using the SCF density matrix

  Nuclear Dipole Moment: (a.u.)
     X:    -0.5626      Y:     1.8063      Z:     0.0261

  Electronic Dipole Moment: (a.u.)
     X:     0.5901      Y:    -1.8221      Z:    -0.0263

  Dipole Moment: (a.u.)
     X:     0.0275      Y:    -0.0158      Z:    -0.0002     Total:     0.0317

  Dipole Moment: (Debye)
     X:     0.0698      Y:    -0.0403      Z:    -0.0006     Total:     0.0806


  //>>>>>>>>>>>>>>>>>>>>>>>>>>>>>>>>>>>//
  //               DFMP2               //
  //<<<<<<<<<<<<<<<<<<<<<<<<<<<<<<<<<<<//


*** tstart() called on wr39
*** at Thu Sep 22 07:16:59 2016


*** tstop() called on wr39 at Thu Sep 22 07:16:59 2016
Module time:
	user time   =       3.37 seconds =       0.06 minutes
	system time =       0.11 seconds =       0.00 minutes
	total time  =          0 seconds =       0.00 minutes
Total time:
	user time   =     816.57 seconds =      13.61 minutes
	system time =      12.21 seconds =       0.20 minutes
	total time  =         83 seconds =       1.38 minutes
	 --------------------------------------------------------
	                          DF-MP2                         
	      2nd-Order Density-Fitted Moller-Plesset Theory     
	              RMP2 Wavefunction,  12 Threads             
	                                                         
	        Rob Parrish, Justin Turney, Andy Simmonett,      
	           Ed Hohenstein, and C. David Sherrill          
	 --------------------------------------------------------

   => Auxiliary Basis Set <=

  Basis Set: 
    Number of shells: 510
    Number of basis function: 2046
    Number of Cartesian functions: 2708
    Spherical Harmonics?: true
    Max angular momentum: 5

	 --------------------------------------------------------
	                 NBF =   980, NAUX =  2046
	 --------------------------------------------------------
	   CLASS    FOCC     OCC    AOCC    AVIR     VIR    FVIR
	   PAIRS       8      33      25     947     947       0
	 --------------------------------------------------------

	-----------------------------------------------------------
	 ==================> DF-MP2 Energies <==================== 
	-----------------------------------------------------------
	 Reference Energy          =    -313.5621405762389600 [Eh]
	 Singles Energy            =      -0.0000000000035738 [Eh]
	 Same-Spin Energy          =      -0.3220255308043389 [Eh]
	 Opposite-Spin Energy      =      -1.1818201284148169 [Eh]
	 Correlation Energy        =      -1.5038456592227296 [Eh]
	 Total Energy              =    -315.0659862354617076 [Eh]
	-----------------------------------------------------------
	 ================> DF-SCS-MP2 Energies <================== 
	-----------------------------------------------------------
	 SCS Same-Spin Scale       =       0.3333333333333333 [-]
	 SCS Opposite-Spin Scale   =       1.2000000000000000 [-]
	 SCS Same-Spin Energy      =      -0.1073418436014463 [Eh]
	 SCS Opposite-Spin Energy  =      -1.4181841540977802 [Eh]
	 SCS Correlation Energy    =      -1.5255259977028004 [Eh]
	 SCS Total Energy          =    -315.0876665739417604 [Eh]
	-----------------------------------------------------------


  //>>>>>>>>>>>>>>>>>>>>>>>>>>>>>>>>>>>//
  //    CBS Results: custom function   //
  //<<<<<<<<<<<<<<<<<<<<<<<<<<<<<<<<<<<//


   ==> Helgaker 2-point SCF extrapolation for method: HF <==

   LO-zeta (3) Energy:               -313.542365773269
   HI-zeta (4) Energy:               -313.562140576239
   Alpha (exponent) Value:             1.630000000000
   Beta (coefficient) Value:           3.269776684203

   @Extrapolated HF/(T,Q):          -313.566959145110



   ==> Helgaker 2-point correlated extrapolation for method: MP2 <==

   LO-zeta (3) Energy:               -314.960129433760
   HI-zeta (4) Energy:               -315.065986235462
   Extrapolated Energy:              -315.143233090758

   @Extrapolated MP2/(T,Q):          -315.143233090758



   ==> Helgaker 2-point correlated extrapolation for method: HF <==

   LO-zeta (3) Energy:               -313.542365773269
   HI-zeta (4) Energy:               -313.562140576239
   Extrapolated Energy:              -313.576570837866

   @Extrapolated HF/(T,Q):           -313.576570837866


   ==> Components <==

  ---------------------------------------------------------------------------------------------------------
                          Method / Basis                      Rqd      Energy [Eh]   Variable
  ---------------------------------------------------------------------------------------------------------
                             mp2 / cc-pvtz                      *    -314.96012943   MP2 TOTAL ENERGY
                              hf / cc-pvtz                      *    -313.54236577   HF TOTAL ENERGY
                             mp2 / cc-pvqz                      *    -315.06598624   MP2 TOTAL ENERGY
                              hf / cc-pvqz                      *    -313.56214058   HF TOTAL ENERGY
  ---------------------------------------------------------------------------------------------------------

   ==> Stages <==

  ---------------------------------------------------------------------------------------------------------
      Stage               Method / Basis                       Wt      Energy [Eh]   Scheme
  ---------------------------------------------------------------------------------------------------------
        scf                   hf / cc-pv[tq]z                   1    -313.56695915   scf_xtpl_helgaker_2
       corl                  mp2 / cc-pv[tq]z                   1    -315.14323309   corl_xtpl_helgaker_2
       corl                   hf / cc-pv[tq]z                  -1    -313.57657084   corl_xtpl_helgaker_2
  ---------------------------------------------------------------------------------------------------------

   ==> CBS <==

  ---------------------------------------------------------------------------------------------------------
      Stage               Method / Basis                               Energy [Eh]   Scheme
  ---------------------------------------------------------------------------------------------------------
        scf                   hf / cc-pv[tq]z                        -313.56695915   scf_xtpl_helgaker_2
       corl                  mp2 / cc-pv[tq]z                          -1.56666225   corl_xtpl_helgaker_2
      total                  CBS                                     -315.13362140   
  ---------------------------------------------------------------------------------------------------------

*** Psi4 exiting successfully. Buy a developer a beer!
