    -----------------------------------------------------------------------
          Psi4: An Open-Source Ab Initio Electronic Structure Package
                              Psi4 1.0.0 Driver

                          Git: Rev {master} 6a9a71b dirty

    J. M. Turney, A. C. Simmonett, R. M. Parrish, E. G. Hohenstein,
    F. A. Evangelista, J. T. Fermann, B. J. Mintz, L. A. Burns, J. J. Wilke,
    M. L. Abrams, N. J. Russ, M. L. Leininger, C. L. Janssen, E. T. Seidl,
    W. D. Allen, H. F. Schaefer, R. A. King, E. F. Valeev, C. D. Sherrill,
    and T. D. Crawford, WIREs Comput. Mol. Sci. 2, 556-565 (2012)
    (doi: 10.1002/wcms.93)

                         Additional Contributions by
    A. E. DePrince, U. Bozkaya, A. Yu. Sokolov, D. G. A. Smith, R. Di Remigio,
    R. M. Richard, J. F. Gonthier, H. R. McAlexander, M. Saitow, and
    B. P. Pritchard
    -----------------------------------------------------------------------


    Psi4 started on: Thu Sep 22 07:15:35 2016

    Process ID:  25982
    PSI4DATADIR: /usr/local/hpc5/psi4conda/share/psi4
    Memory level set to 256.000 MB

  ==> Input File <==

--------------------------------------------------------------------------
memory 60 Gb

molecule molecule_09_psi {
0 1
    C           -0.583069420008    -3.608224731823    -0.831430489960
    H           -1.493067718652    -3.012333116453    -0.888693858199
    H           -0.878306313585    -4.655089018561    -0.764974653710
    H           -0.035989548306    -3.473336563313    -1.766115909887
    C            0.582979994038     3.608171907685    -0.831720980194
    H            0.035792676748     3.473226838173    -1.766335472560
    H            1.492971145028     3.012275715647    -0.889052144068
    H            0.878226001106     4.655039968097    -0.765363658716
    C            0.279704707238    -3.202316406289     0.358755951166
    H            1.124373157368    -3.889995611694     0.440322275449
    H           -0.296061010140    -3.307623056634     1.282434762992
    C           -0.279658039314     3.202339077679     0.358589784078
    H            0.296214950227     3.307698902958     1.282195772893
    H           -1.124313417146     3.890027806875     0.440212079245
    C            0.809279907476    -1.773465902316     0.261055855487
    H            1.402973862656    -1.671070558261    -0.653320724570
    H            1.490488644175    -1.584391592190     1.095710215438
    C           -0.281113663686    -0.708246670014     0.270703127291
    H           -0.912990218979    -0.847369649127     1.154454184480
    H           -0.931743427048    -0.829297329727    -0.599333534682
    C            0.281135577726     0.708260726030     0.270632179995
    H            0.913106462626     0.847432944528     1.154308405268
    H            0.931674373164     0.829258521937    -0.599480181951
    C           -0.809253119415     1.773485458999     0.261037805794
    H           -1.403049412921     1.671036278254    -0.653266737611
    H           -1.490370981173     1.584468322427     1.095779487811
}

set globals {
  reference rhf
  freeze_core true
}
energy(cbs, corl_wfn='mp2', corl_basis='cc-pv[tq]z', scf_basis='cc-pv[tq]z', corl_scheme=corl_xtpl_helgaker_2, scf_scheme=scf_xtpl_helgaker_2)
--------------------------------------------------------------------------
/usr/local/hpc5/psi4conda/lib/python2.7/site-packages/v2rdm_casscf/v2rdm_casscf.so loaded.

  Memory set to  60.000 GiB by Python script.

  //>>>>>>>>>>>>>>>>>>>>>>>>>>>>>>>>>>>//
  //     CBS Setup: custom function    //
  //<<<<<<<<<<<<<<<<<<<<<<<<<<<<<<<<<<<//

    Naive listing of computations required.
             hf / cc-pvtz                  for  HF TOTAL ENERGY
             hf / cc-pvqz                  for  HF TOTAL ENERGY
            mp2 / cc-pvtz                  for  MP2 TOTAL ENERGY
            mp2 / cc-pvqz                  for  MP2 TOTAL ENERGY
             hf / cc-pvtz                  for  HF TOTAL ENERGY
             hf / cc-pvqz                  for  HF TOTAL ENERGY

    Enlightened listing of computations required.
            mp2 / cc-pvtz                  for  MP2 TOTAL ENERGY
            mp2 / cc-pvqz                  for  MP2 TOTAL ENERGY

    Full listing of computations to be obtained (required and bonus).
            mp2 / cc-pvtz                  for  MP2 TOTAL ENERGY
             hf / cc-pvtz                  for  HF TOTAL ENERGY
            mp2 / cc-pvqz                  for  MP2 TOTAL ENERGY
             hf / cc-pvqz                  for  HF TOTAL ENERGY

  //>>>>>>>>>>>>>>>>>>>>>>>>>>>>>>>>>>>//
  //   CBS Computation: MP2 / CC-PVTZ  //
  //<<<<<<<<<<<<<<<<<<<<<<<<<<<<<<<<<<<//

    SCF Algorithm Type (re)set to DF.

*** tstart() called on wr38
*** at Thu Sep 22 07:15:36 2016


         ---------------------------------------------------------
                                   SCF
            by Justin Turney, Rob Parrish, and Andy Simmonett
                              RHF Reference
                       12 Threads,  60000 MiB Core
         ---------------------------------------------------------

  ==> Geometry <==

    Molecular point group: c1
    Full point group: C1

    Geometry (in Angstrom), charge = 0, multiplicity = 1:

       Center              X                  Y                   Z               Mass       
    ------------   -----------------  -----------------  -----------------  -----------------
           C         -0.583069420008    -3.608224731823    -0.831430489960    12.000000000000
           H         -1.493067718652    -3.012333116453    -0.888693858199     1.007825032070
           H         -0.878306313585    -4.655089018561    -0.764974653710     1.007825032070
           H         -0.035989548306    -3.473336563313    -1.766115909887     1.007825032070
           C          0.582979994038     3.608171907685    -0.831720980194    12.000000000000
           H          0.035792676748     3.473226838173    -1.766335472560     1.007825032070
           H          1.492971145028     3.012275715647    -0.889052144068     1.007825032070
           H          0.878226001106     4.655039968097    -0.765363658716     1.007825032070
           C          0.279704707238    -3.202316406289     0.358755951166    12.000000000000
           H          1.124373157368    -3.889995611694     0.440322275449     1.007825032070
           H         -0.296061010140    -3.307623056634     1.282434762992     1.007825032070
           C         -0.279658039314     3.202339077679     0.358589784078    12.000000000000
           H          0.296214950227     3.307698902958     1.282195772893     1.007825032070
           H         -1.124313417146     3.890027806875     0.440212079245     1.007825032070
           C          0.809279907476    -1.773465902316     0.261055855487    12.000000000000
           H          1.402973862656    -1.671070558261    -0.653320724570     1.007825032070
           H          1.490488644175    -1.584391592190     1.095710215438     1.007825032070
           C         -0.281113663686    -0.708246670014     0.270703127291    12.000000000000
           H         -0.912990218979    -0.847369649127     1.154454184480     1.007825032070
           H         -0.931743427048    -0.829297329727    -0.599333534682     1.007825032070
           C          0.281135577726     0.708260726030     0.270632179995    12.000000000000
           H          0.913106462626     0.847432944528     1.154308405268     1.007825032070
           H          0.931674373164     0.829258521937    -0.599480181951     1.007825032070
           C         -0.809253119415     1.773485458999     0.261037805794    12.000000000000
           H         -1.403049412921     1.671036278254    -0.653266737611     1.007825032070
           H         -1.490370981173     1.584468322427     1.095779487811     1.007825032070

  Running in c1 symmetry.

  Rotational constants: A =      0.18562  B =      0.02004  C =      0.01991 [cm^-1]
  Rotational constants: A =   5564.82594  B =    600.91732  C =    596.83773 [MHz]
  Nuclear repulsion =  385.130298940249077

  Charge       = 0
  Multiplicity = 1
  Electrons    = 66
  Nalpha       = 33
  Nbeta        = 33

  ==> Algorithm <==

  SCF Algorithm Type is DF.
  DIIS enabled.
  MOM disabled.
  Fractional occupation disabled.
  Guess Type is SAD.
  Energy threshold   = 1.00e-08
  Density threshold  = 1.00e-08
  Integral threshold = 0.00e+00

  ==> Primary Basis <==

  Basis Set: CC-PVTZ
    Number of shells: 188
    Number of basis function: 492
    Number of Cartesian functions: 550
    Spherical Harmonics?: true
    Max angular momentum: 3

  ==> Pre-Iterations <==

   -------------------------------------------------------
    Irrep   Nso     Nmo     Nalpha   Nbeta   Ndocc  Nsocc
   -------------------------------------------------------
     A        492     492       0       0       0       0
   -------------------------------------------------------
    Total     492     492      33      33      33       0
   -------------------------------------------------------

  ==> Integral Setup <==

  ==> DFJK: Density-Fitted J/K Matrices <==

    J tasked:                  Yes
    K tasked:                  Yes
    wK tasked:                  No
    OpenMP threads:             12
    Integrals threads:          12
    Memory (MB):             42915
    Algorithm:                Core
    Integral Cache:           NONE
    Schwarz Cutoff:          1E-12
    Fitting Condition:       1E-12

   => Auxiliary Basis Set <=

  Basis Set: 
    Number of shells: 380
    Number of basis function: 1172
    Number of Cartesian functions: 1398
    Spherical Harmonics?: true
    Max angular momentum: 4

  Minimum eigenvalue in the overlap matrix is 2.3742955322E-04.
  Using Symmetric Orthogonalization.
  SCF Guess: Superposition of Atomic Densities via on-the-fly atomic UHF.

  ==> Iterations <==

                           Total Energy        Delta E     RMS |[F,P]|

   @DF-RHF iter   0:  -317.48364206475514   -3.17484e+02   1.14711e-02 
   @DF-RHF iter   1:  -313.33251007204478    4.15113e+00   1.04315e-03 
   @DF-RHF iter   2:  -313.51813605543020   -1.85626e-01   3.69329e-04 DIIS
   @DF-RHF iter   3:  -313.53861281211562   -2.04768e-02   1.36154e-04 DIIS
   @DF-RHF iter   4:  -313.54234253334937   -3.72972e-03   2.38690e-05 DIIS
   @DF-RHF iter   5:  -313.54249180704107   -1.49274e-04   6.45420e-06 DIIS
   @DF-RHF iter   6:  -313.54250194129531   -1.01343e-05   2.05588e-06 DIIS
   @DF-RHF iter   7:  -313.54250277336473   -8.32069e-07   3.60871e-07 DIIS
   @DF-RHF iter   8:  -313.54250281340137   -4.00366e-08   7.72186e-08 DIIS
   @DF-RHF iter   9:  -313.54250281507018   -1.66881e-09   2.24345e-08 DIIS
   @DF-RHF iter  10:  -313.54250281520353   -1.33355e-10   6.34612e-09 DIIS

  ==> Post-Iterations <==

    Orbital Energies (a.u.)
    -----------------------

    Doubly Occupied:                                                      

       1A    -11.212751     2A    -11.212750     3A    -11.210358  
       4A    -11.210301     5A    -11.209531     6A    -11.208959  
       7A    -11.206393     8A    -11.206393     9A     -1.093511  
      10A     -1.062214    11A     -1.009384    12A     -0.945137  
      13A     -0.886610    14A     -0.828635    15A     -0.773645  
      16A     -0.771154    17A     -0.648242    18A     -0.621665  
      19A     -0.618922    20A     -0.592404    21A     -0.581470  
      22A     -0.563812    23A     -0.536139    24A     -0.527491  
      25A     -0.516410    26A     -0.496499    27A     -0.489775  
      28A     -0.477509    29A     -0.461107    30A     -0.459560  
      31A     -0.452871    32A     -0.448555    33A     -0.428487  

    Virtual:                                                              

      34A      0.142387    35A      0.148607    36A      0.160348  
      37A      0.161472    38A      0.175581    39A      0.184932  
      40A      0.187180    41A      0.210039    42A      0.218082  
      43A      0.222648    44A      0.225236    45A      0.229742  
      46A      0.238241    47A      0.255556    48A      0.266723  
      49A      0.276085    50A      0.280234    51A      0.283005  
      52A      0.328143    53A      0.330427    54A      0.346195  
      55A      0.350121    56A      0.370133    57A      0.372898  
      58A      0.384411    59A      0.389903    60A      0.405807  
      61A      0.409252    62A      0.428859    63A      0.434287  
      64A      0.449277    65A      0.458992    66A      0.476662  
      67A      0.479030    68A      0.496476    69A      0.510805  
      70A      0.539984    71A      0.559479    72A      0.574728  
      73A      0.580343    74A      0.591205    75A      0.593835  
      76A      0.600195    77A      0.606475    78A      0.616836  
      79A      0.621284    80A      0.629265    81A      0.631526  
      82A      0.638815    83A      0.646508    84A      0.648318  
      85A      0.650222    86A      0.658330    87A      0.669436  
      88A      0.673780    89A      0.676624    90A      0.681209  
      91A      0.688461    92A      0.704469    93A      0.705163  
      94A      0.714444    95A      0.721395    96A      0.733376  
      97A      0.738365    98A      0.756025    99A      0.764502  
     100A      0.776763   101A      0.802651   102A      0.820540  
     103A      0.858178   104A      0.866633   105A      0.877588  
     106A      0.889561   107A      0.912669   108A      0.920960  
     109A      0.930215   110A      0.955378   111A      0.968994  
     112A      0.985931   113A      1.002658   114A      1.009552  
     115A      1.023444   116A      1.027380   117A      1.040459  
     118A      1.046748   119A      1.062415   120A      1.074741  
     121A      1.114855   122A      1.116396   123A      1.130368  
     124A      1.141510   125A      1.148214   126A      1.164303  
     127A      1.197411   128A      1.198252   129A      1.225341  
     130A      1.232691   131A      1.248834   132A      1.249729  
     133A      1.265062   134A      1.279285   135A      1.279987  
     136A      1.285613   137A      1.291887   138A      1.299040  
     139A      1.313276   140A      1.327734   141A      1.330772  
     142A      1.338431   143A      1.355509   144A      1.374239  
     145A      1.376584   146A      1.378377   147A      1.379070  
     148A      1.390915   149A      1.397514   150A      1.407532  
     151A      1.417311   152A      1.418657   153A      1.433763  
     154A      1.438183   155A      1.445975   156A      1.463008  
     157A      1.469699   158A      1.480020   159A      1.480049  
     160A      1.484105   161A      1.485467   162A      1.503239  
     163A      1.509460   164A      1.525533   165A      1.533052  
     166A      1.547194   167A      1.547833   168A      1.562617  
     169A      1.568190   170A      1.581702   171A      1.600902  
     172A      1.609432   173A      1.614198   174A      1.630762  
     175A      1.633368   176A      1.668779   177A      1.676514  
     178A      1.687425   179A      1.688992   180A      1.712174  
     181A      1.720160   182A      1.729918   183A      1.741311  
     184A      1.755185   185A      1.763090   186A      1.779611  
     187A      1.788419   188A      1.794989   189A      1.815772  
     190A      1.820718   191A      1.848951   192A      1.853619  
     193A      1.855767   194A      1.873330   195A      1.892098  
     196A      1.915441   197A      1.956570   198A      1.996200  
     199A      2.022462   200A      2.026864   201A      2.071152  
     202A      2.073829   203A      2.534379   204A      2.535455  
     205A      2.566785   206A      2.573161   207A      2.624583  
     208A      2.649407   209A      2.660303   210A      2.685781  
     211A      2.688396   212A      2.698025   213A      2.704197  
     214A      2.739885   215A      2.744656   216A      2.751159  
     217A      2.769643   218A      2.783140   219A      2.791619  
     220A      2.814900   221A      2.821001   222A      2.833081  
     223A      2.841559   224A      2.849384   225A      2.859659  
     226A      2.880129   227A      2.889175   228A      2.914051  
     229A      2.924179   230A      2.935402   231A      2.945251  
     232A      2.954215   233A      2.964545   234A      2.973722  
     235A      2.974205   236A      2.997964   237A      3.001713  
     238A      3.026409   239A      3.030421   240A      3.041069  
     241A      3.052640   242A      3.078742   243A      3.082039  
     244A      3.095088   245A      3.111010   246A      3.142551  
     247A      3.144543   248A      3.148868   249A      3.151088  
     250A      3.164876   251A      3.188395   252A      3.200461  
     253A      3.215723   254A      3.243509   255A      3.244734  
     256A      3.264838   257A      3.277198   258A      3.280038  
     259A      3.301838   260A      3.311259   261A      3.315294  
     262A      3.327928   263A      3.341850   264A      3.361593  
     265A      3.366450   266A      3.372323   267A      3.379165  
     268A      3.395563   269A      3.410886   270A      3.411767  
     271A      3.413402   272A      3.421594   273A      3.431379  
     274A      3.440063   275A      3.441272   276A      3.453179  
     277A      3.455028   278A      3.465891   279A      3.474452  
     280A      3.484053   281A      3.501990   282A      3.504928  
     283A      3.504943   284A      3.513722   285A      3.513799  
     286A      3.523370   287A      3.538453   288A      3.550202  
     289A      3.553264   290A      3.563687   291A      3.577852  
     292A      3.590503   293A      3.596584   294A      3.605393  
     295A      3.625911   296A      3.626396   297A      3.638423  
     298A      3.660668   299A      3.669076   300A      3.693161  
     301A      3.718739   302A      3.719748   303A      3.743074  
     304A      3.752316   305A      3.758570   306A      3.776009  
     307A      3.779181   308A      3.786415   309A      3.805421  
     310A      3.828276   311A      3.840733   312A      3.843661  
     313A      3.848929   314A      3.875087   315A      3.878651  
     316A      3.888853   317A      3.891165   318A      3.917235  
     319A      3.936550   320A      3.939420   321A      3.943274  
     322A      3.949996   323A      3.967744   324A      3.977321  
     325A      4.011264   326A      4.021376   327A      4.030002  
     328A      4.034070   329A      4.052638   330A      4.085918  
     331A      4.089561   332A      4.110315   333A      4.116070  
     334A      4.121530   335A      4.126607   336A      4.133308  
     337A      4.144147   338A      4.145560   339A      4.148615  
     340A      4.162448   341A      4.174180   342A      4.177480  
     343A      4.180865   344A      4.183184   345A      4.210565  
     346A      4.212076   347A      4.227845   348A      4.239687  
     349A      4.253967   350A      4.262147   351A      4.269095  
     352A      4.277458   353A      4.284307   354A      4.302821  
     355A      4.316978   356A      4.328857   357A      4.340737  
     358A      4.345632   359A      4.357930   360A      4.374620  
     361A      4.382384   362A      4.392771   363A      4.395633  
     364A      4.407807   365A      4.414080   366A      4.435046  
     367A      4.435312   368A      4.446139   369A      4.458636  
     370A      4.463113   371A      4.466184   372A      4.476125  
     373A      4.483296   374A      4.501459   375A      4.510736  
     376A      4.513535   377A      4.519509   378A      4.543070  
     379A      4.557539   380A      4.559106   381A      4.570594  
     382A      4.576059   383A      4.610921   384A      4.613776  
     385A      4.634698   386A      4.635953   387A      4.660708  
     388A      4.667382   389A      4.683592   390A      4.685349  
     391A      4.701134   392A      4.707640   393A      4.733921  
     394A      4.736908   395A      4.760674   396A      4.769666  
     397A      4.791508   398A      4.796995   399A      4.814950  
     400A      4.819312   401A      4.821642   402A      4.852918  
     403A      4.905414   404A      4.928311   405A      4.963843  
     406A      4.966833   407A      5.002639   408A      5.011084  
     409A      5.019732   410A      5.034737   411A      5.056524  
     412A      5.065694   413A      5.082247   414A      5.108947  
     415A      5.117911   416A      5.160989   417A      5.162040  
     418A      5.180690   419A      5.182947   420A      5.198586  
     421A      5.224044   422A      5.239995   423A      5.240964  
     424A      5.251135   425A      5.252690   426A      5.263128  
     427A      5.278777   428A      5.333067   429A      5.342501  
     430A      5.352592   431A      5.359399   432A      5.363090  
     433A      5.388026   434A      5.389804   435A      5.405729  
     436A      5.417778   437A      5.430841   438A      5.466789  
     439A      5.476128   440A      5.524111   441A      5.545679  
     442A      5.564528   443A      5.566337   444A      5.587727  
     445A      5.615772   446A      5.637195   447A      5.638021  
     448A      5.654420   449A      5.722680   450A      5.735729  
     451A      5.740892   452A      5.743728   453A      5.764846  
     454A      5.768683   455A      5.786633   456A      5.788480  
     457A      5.802961   458A      5.820521   459A      5.830070  
     460A      5.867064   461A      5.873556   462A      5.876926  
     463A      5.889854   464A      5.916743   465A      5.926378  
     466A      5.936269   467A      5.948664   468A      5.964427  
     469A      6.011725   470A      6.018453   471A      6.075636  
     472A      6.079453   473A      6.121403   474A      6.137843  
     475A      6.287872   476A      6.316582   477A      6.331124  
     478A      6.347217   479A      6.374123   480A      6.422262  
     481A      6.422407   482A      6.435085   483A      6.481719  
     484A      6.537238   485A     12.959431   486A     13.270226  
     487A     13.368271   488A     13.525384   489A     13.763424  
     490A     13.985082   491A     14.192887   492A     14.201279  

    Final Occupation by Irrep:
              A 
    DOCC [    33 ]

  Energy converged.

  @DF-RHF Final Energy:  -313.54250281520353

   => Energetics <=

    Nuclear Repulsion Energy =            385.1302989402490766
    One-Electron Energy =               -1185.4083144901073865
    Two-Electron Energy =                 486.7355127346547761
    DFT Exchange-Correlation Energy =       0.0000000000000000
    Empirical Dispersion Energy =           0.0000000000000000
    PCM Polarization Energy =               0.0000000000000000
    EFP Energy =                            0.0000000000000000
    Total Energy =                       -313.5425028152035338


  Saving occupied orbitals to File 180.

*** tstop() called on wr38 at Thu Sep 22 07:15:49 2016
Module time:
	user time   =     126.56 seconds =       2.11 minutes
	system time =       2.95 seconds =       0.05 minutes
	total time  =         13 seconds =       0.22 minutes
Total time:
	user time   =     126.56 seconds =       2.11 minutes
	system time =       2.95 seconds =       0.05 minutes
	total time  =         13 seconds =       0.22 minutes


Properties will be evaluated at   0.000000,   0.000000,   0.000000 Bohr

Properties computed using the SCF density matrix

  Nuclear Dipole Moment: (a.u.)
     X:    -0.0001      Y:    -0.0000      Z:    -1.3129

  Electronic Dipole Moment: (a.u.)
     X:     0.0001      Y:     0.0000      Z:     1.3471

  Dipole Moment: (a.u.)
     X:     0.0000      Y:     0.0000      Z:     0.0342     Total:     0.0342

  Dipole Moment: (Debye)
     X:     0.0000      Y:     0.0000      Z:     0.0868     Total:     0.0868


  //>>>>>>>>>>>>>>>>>>>>>>>>>>>>>>>>>>>//
  //               DFMP2               //
  //<<<<<<<<<<<<<<<<<<<<<<<<<<<<<<<<<<<//


*** tstart() called on wr38
*** at Thu Sep 22 07:15:49 2016


*** tstop() called on wr38 at Thu Sep 22 07:15:49 2016
Module time:
	user time   =       4.32 seconds =       0.07 minutes
	system time =       0.09 seconds =       0.00 minutes
	total time  =          0 seconds =       0.00 minutes
Total time:
	user time   =     131.73 seconds =       2.20 minutes
	system time =       3.06 seconds =       0.05 minutes
	total time  =         13 seconds =       0.22 minutes
	 --------------------------------------------------------
	                          DF-MP2                         
	      2nd-Order Density-Fitted Moller-Plesset Theory     
	              RMP2 Wavefunction,  12 Threads             
	                                                         
	        Rob Parrish, Justin Turney, Andy Simmonett,      
	           Ed Hohenstein, and C. David Sherrill          
	 --------------------------------------------------------

   => Auxiliary Basis Set <=

  Basis Set: 
    Number of shells: 364
    Number of basis function: 1188
    Number of Cartesian functions: 1438
    Spherical Harmonics?: true
    Max angular momentum: 4

	 --------------------------------------------------------
	                 NBF =   492, NAUX =  1188
	 --------------------------------------------------------
	   CLASS    FOCC     OCC    AOCC    AVIR     VIR    FVIR
	   PAIRS       8      33      25     459     459       0
	 --------------------------------------------------------

	-----------------------------------------------------------
	 ==================> DF-MP2 Energies <==================== 
	-----------------------------------------------------------
	 Reference Energy          =    -313.5425028152035338 [Eh]
	 Singles Energy            =      -0.0000000000009184 [Eh]
	 Same-Spin Energy          =      -0.3117077023552423 [Eh]
	 Opposite-Spin Energy      =      -1.1058598825559267 [Eh]
	 Correlation Energy        =      -1.4175675849120875 [Eh]
	 Total Energy              =    -314.9600704001156259 [Eh]
	-----------------------------------------------------------
	 ================> DF-SCS-MP2 Energies <================== 
	-----------------------------------------------------------
	 SCS Same-Spin Scale       =       0.3333333333333333 [-]
	 SCS Opposite-Spin Scale   =       1.2000000000000000 [-]
	 SCS Same-Spin Energy      =      -0.1039025674517474 [Eh]
	 SCS Opposite-Spin Energy  =      -1.3270318590671120 [Eh]
	 SCS Correlation Energy    =      -1.4309344265197779 [Eh]
	 SCS Total Energy          =    -314.9734372417233317 [Eh]
	-----------------------------------------------------------


  //>>>>>>>>>>>>>>>>>>>>>>>>>>>>>>>>>>>//
  //   CBS Computation: MP2 / CC-PVQZ  //
  //<<<<<<<<<<<<<<<<<<<<<<<<<<<<<<<<<<<//

    SCF Algorithm Type (re)set to DF.

*** tstart() called on wr38
*** at Thu Sep 22 07:15:59 2016


         ---------------------------------------------------------
                                   SCF
            by Justin Turney, Rob Parrish, and Andy Simmonett
                              RHF Reference
                       12 Threads,  60000 MiB Core
         ---------------------------------------------------------

  ==> Geometry <==

    Molecular point group: c1
    Full point group: C1

    Geometry (in Angstrom), charge = 0, multiplicity = 1:

       Center              X                  Y                   Z               Mass       
    ------------   -----------------  -----------------  -----------------  -----------------
           C         -0.583069420008    -3.608224731823    -0.831430489960    12.000000000000
           H         -1.493067718652    -3.012333116453    -0.888693858199     1.007825032070
           H         -0.878306313585    -4.655089018561    -0.764974653710     1.007825032070
           H         -0.035989548306    -3.473336563313    -1.766115909887     1.007825032070
           C          0.582979994038     3.608171907685    -0.831720980194    12.000000000000
           H          0.035792676748     3.473226838173    -1.766335472560     1.007825032070
           H          1.492971145028     3.012275715647    -0.889052144068     1.007825032070
           H          0.878226001106     4.655039968097    -0.765363658716     1.007825032070
           C          0.279704707238    -3.202316406289     0.358755951166    12.000000000000
           H          1.124373157368    -3.889995611694     0.440322275449     1.007825032070
           H         -0.296061010140    -3.307623056634     1.282434762992     1.007825032070
           C         -0.279658039314     3.202339077679     0.358589784078    12.000000000000
           H          0.296214950227     3.307698902958     1.282195772893     1.007825032070
           H         -1.124313417146     3.890027806875     0.440212079245     1.007825032070
           C          0.809279907476    -1.773465902316     0.261055855487    12.000000000000
           H          1.402973862656    -1.671070558261    -0.653320724570     1.007825032070
           H          1.490488644175    -1.584391592190     1.095710215438     1.007825032070
           C         -0.281113663686    -0.708246670014     0.270703127291    12.000000000000
           H         -0.912990218979    -0.847369649127     1.154454184480     1.007825032070
           H         -0.931743427048    -0.829297329727    -0.599333534682     1.007825032070
           C          0.281135577726     0.708260726030     0.270632179995    12.000000000000
           H          0.913106462626     0.847432944528     1.154308405268     1.007825032070
           H          0.931674373164     0.829258521937    -0.599480181951     1.007825032070
           C         -0.809253119415     1.773485458999     0.261037805794    12.000000000000
           H         -1.403049412921     1.671036278254    -0.653266737611     1.007825032070
           H         -1.490370981173     1.584468322427     1.095779487811     1.007825032070

  Running in c1 symmetry.

  Rotational constants: A =      0.18562  B =      0.02004  C =      0.01991 [cm^-1]
  Rotational constants: A =   5564.82594  B =    600.91732  C =    596.83773 [MHz]
  Nuclear repulsion =  385.130298940249077

  Charge       = 0
  Multiplicity = 1
  Electrons    = 66
  Nalpha       = 33
  Nbeta        = 33

  ==> Algorithm <==

  SCF Algorithm Type is DF.
  DIIS enabled.
  MOM disabled.
  Fractional occupation disabled.
  Guess Type is SAD.
  Energy threshold   = 1.00e-08
  Density threshold  = 1.00e-08
  Integral threshold = 0.00e+00

  ==> Primary Basis <==

  Basis Set: CC-PVQZ
    Number of shells: 300
    Number of basis function: 980
    Number of Cartesian functions: 1190
    Spherical Harmonics?: true
    Max angular momentum: 4

  ==> Pre-Iterations <==

   -------------------------------------------------------
    Irrep   Nso     Nmo     Nalpha   Nbeta   Ndocc  Nsocc
   -------------------------------------------------------
     A        980     980       0       0       0       0
   -------------------------------------------------------
    Total     980     980      33      33      33       0
   -------------------------------------------------------

  ==> Integral Setup <==

  ==> DFJK: Density-Fitted J/K Matrices <==

    J tasked:                  Yes
    K tasked:                  Yes
    wK tasked:                  No
    OpenMP threads:             12
    Integrals threads:          12
    Memory (MB):             42915
    Algorithm:                Core
    Integral Cache:           NONE
    Schwarz Cutoff:          1E-12
    Fitting Condition:       1E-12

   => Auxiliary Basis Set <=

  Basis Set: 
    Number of shells: 458
    Number of basis function: 1766
    Number of Cartesian functions: 2324
    Spherical Harmonics?: true
    Max angular momentum: 5

  Minimum eigenvalue in the overlap matrix is 4.2506901735E-05.
  Using Symmetric Orthogonalization.
  SCF Guess: Superposition of Atomic Densities via on-the-fly atomic UHF.

  ==> Iterations <==

                           Total Energy        Delta E     RMS |[F,P]|

   @DF-RHF iter   0:  -317.39145359265547   -3.17391e+02   5.80189e-03 
   @DF-RHF iter   1:  -313.33268358991745    4.05877e+00   5.51608e-04 
   @DF-RHF iter   2:  -313.53780798635012   -2.05124e-01   1.82746e-04 DIIS
   @DF-RHF iter   3:  -313.55833476751309   -2.05268e-02   7.03507e-05 DIIS
   @DF-RHF iter   4:  -313.56208367602380   -3.74891e-03   1.35935e-05 DIIS
   @DF-RHF iter   5:  -313.56227090118000   -1.87225e-04   3.26975e-06 DIIS
   @DF-RHF iter   6:  -313.56228158109730   -1.06799e-05   1.07920e-06 DIIS
   @DF-RHF iter   7:  -313.56228255401516   -9.72918e-07   2.08584e-07 DIIS
   @DF-RHF iter   8:  -313.56228260208400   -4.80688e-08   5.06176e-08 DIIS
   @DF-RHF iter   9:  -313.56228260458545   -2.50145e-09   1.47521e-08 DIIS
   @DF-RHF iter  10:  -313.56228260479736   -2.11912e-10   4.23621e-09 DIIS

  ==> Post-Iterations <==

    Orbital Energies (a.u.)
    -----------------------

    Doubly Occupied:                                                      

       1A    -11.211644     2A    -11.211644     3A    -11.209243  
       4A    -11.209186     5A    -11.208405     6A    -11.207831  
       7A    -11.205386     8A    -11.205386     9A     -1.093192  
      10A     -1.061916    11A     -1.009106    12A     -0.944894  
      13A     -0.886417    14A     -0.828481    15A     -0.773570  
      16A     -0.771046    17A     -0.648285    18A     -0.621728  
      19A     -0.618981    20A     -0.592471    21A     -0.581550  
      22A     -0.563887    23A     -0.536238    24A     -0.527595  
      25A     -0.516479    26A     -0.496625    27A     -0.489887  
      28A     -0.477628    29A     -0.461265    30A     -0.459729  
      31A     -0.453060    32A     -0.448645    33A     -0.428555  

    Virtual:                                                              

      34A      0.113916    35A      0.121235    36A      0.130758  
      37A      0.132461    38A      0.146468    39A      0.153878  
      40A      0.155607    41A      0.176279    42A      0.184061  
      43A      0.189937    44A      0.192916    45A      0.199984  
      46A      0.201308    47A      0.225040    48A      0.229194  
      49A      0.236926    50A      0.244568    51A      0.248070  
      52A      0.275791    53A      0.282769    54A      0.284757  
      55A      0.286219    56A      0.300488    57A      0.310909  
      58A      0.320184    59A      0.320744    60A      0.332099  
      61A      0.349691    62A      0.356192    63A      0.359513  
      64A      0.375404    65A      0.381226    66A      0.396962  
      67A      0.418145    68A      0.423689    69A      0.428819  
      70A      0.443743    71A      0.445935    72A      0.452284  
      73A      0.457845    74A      0.468982    75A      0.478022  
      76A      0.478724    77A      0.489570    78A      0.489610  
      79A      0.500576    80A      0.508952    81A      0.518410  
      82A      0.518697    83A      0.522215    84A      0.526021  
      85A      0.530062    86A      0.532416    87A      0.533528  
      88A      0.553091    89A      0.556179    90A      0.560952  
      91A      0.564547    92A      0.576679    93A      0.579574  
      94A      0.584718    95A      0.594350    96A      0.608354  
      97A      0.615630    98A      0.640732    99A      0.644975  
     100A      0.661655   101A      0.677472   102A      0.687633  
     103A      0.724949   104A      0.727071   105A      0.745554  
     106A      0.746179   107A      0.749120   108A      0.756716  
     109A      0.780267   110A      0.791354   111A      0.797728  
     112A      0.798798   113A      0.804150   114A      0.817296  
     115A      0.821636   116A      0.833870   117A      0.852647  
     118A      0.856464   119A      0.863063   120A      0.863573  
     121A      0.874798   122A      0.887742   123A      0.897595  
     124A      0.901854   125A      0.908098   126A      0.912260  
     127A      0.923023   128A      0.936683   129A      0.942252  
     130A      0.962229   131A      0.963966   132A      0.972545  
     133A      0.977866   134A      0.982579   135A      0.988200  
     136A      0.995392   137A      1.001355   138A      1.003436  
     139A      1.009701   140A      1.019799   141A      1.032891  
     142A      1.036047   143A      1.041298   144A      1.046865  
     145A      1.048940   146A      1.062191   147A      1.066494  
     148A      1.077257   149A      1.087157   150A      1.097355  
     151A      1.106238   152A      1.108409   153A      1.110344  
     154A      1.118020   155A      1.128490   156A      1.131646  
     157A      1.132205   158A      1.140882   159A      1.141938  
     160A      1.144858   161A      1.155248   162A      1.160653  
     163A      1.165715   164A      1.171002   165A      1.172301  
     166A      1.176896   167A      1.188939   168A      1.195073  
     169A      1.201634   170A      1.202022   171A      1.209117  
     172A      1.223918   173A      1.224106   174A      1.228846  
     175A      1.232803   176A      1.239841   177A      1.250707  
     178A      1.253057   179A      1.263736   180A      1.287796  
     181A      1.291495   182A      1.299920   183A      1.307237  
     184A      1.318362   185A      1.336717   186A      1.346350  
     187A      1.361829   188A      1.365056   189A      1.373613  
     190A      1.387781   191A      1.403124   192A      1.409376  
     193A      1.413658   194A      1.434810   195A      1.456333  
     196A      1.473884   197A      1.479576   198A      1.483801  
     199A      1.519324   200A      1.543673   201A      1.544869  
     202A      1.580429   203A      1.628897   204A      1.664496  
     205A      1.685176   206A      1.701389   207A      1.717840  
     208A      1.732592   209A      1.748758   210A      1.754080  
     211A      1.768215   212A      1.768692   213A      1.787772  
     214A      1.806031   215A      1.813094   216A      1.818758  
     217A      1.825549   218A      1.844370   219A      1.862068  
     220A      1.878975   221A      1.893923   222A      1.896709  
     223A      1.928656   224A      1.935309   225A      1.946438  
     226A      1.978328   227A      1.984600   228A      1.991615  
     229A      1.993456   230A      2.010342   231A      2.016490  
     232A      2.029496   233A      2.036904   234A      2.043472  
     235A      2.044189   236A      2.054256   237A      2.056889  
     238A      2.072339   239A      2.074353   240A      2.080124  
     241A      2.094681   242A      2.099689   243A      2.109790  
     244A      2.114541   245A      2.117520   246A      2.132666  
     247A      2.145806   248A      2.146168   249A      2.154808  
     250A      2.161186   251A      2.164857   252A      2.176686  
     253A      2.183136   254A      2.199299   255A      2.199791  
     256A      2.214920   257A      2.216692   258A      2.229761  
     259A      2.232108   260A      2.233890   261A      2.235509  
     262A      2.244776   263A      2.250572   264A      2.266544  
     265A      2.274582   266A      2.278286   267A      2.280335  
     268A      2.282649   269A      2.289088   270A      2.301193  
     271A      2.305751   272A      2.310373   273A      2.320155  
     274A      2.324016   275A      2.332609   276A      2.345252  
     277A      2.348278   278A      2.364611   279A      2.365552  
     280A      2.377276   281A      2.381452   282A      2.383343  
     283A      2.392294   284A      2.397313   285A      2.400569  
     286A      2.405118   287A      2.421215   288A      2.429902  
     289A      2.439012   290A      2.443801   291A      2.454200  
     292A      2.462316   293A      2.462329   294A      2.470543  
     295A      2.482372   296A      2.497070   297A      2.507832  
     298A      2.510529   299A      2.530138   300A      2.547368  
     301A      2.552797   302A      2.564643   303A      2.570499  
     304A      2.589807   305A      2.593688   306A      2.601364  
     307A      2.610233   308A      2.622430   309A      2.633088  
     310A      2.643402   311A      2.657456   312A      2.674489  
     313A      2.679161   314A      2.693129   315A      2.709940  
     316A      2.714197   317A      2.734643   318A      2.738943  
     319A      2.743128   320A      2.746025   321A      2.756632  
     322A      2.763119   323A      2.772028   324A      2.780982  
     325A      2.784157   326A      2.786589   327A      2.806006  
     328A      2.807207   329A      2.816160   330A      2.817979  
     331A      2.828851   332A      2.831622   333A      2.831637  
     334A      2.848445   335A      2.852062   336A      2.852998  
     337A      2.860191   338A      2.875833   339A      2.879710  
     340A      2.889712   341A      2.895304   342A      2.909852  
     343A      2.910811   344A      2.922764   345A      2.924516  
     346A      2.945923   347A      2.954140   348A      2.966065  
     349A      2.979869   350A      2.988778   351A      2.996153  
     352A      3.001019   353A      3.009727   354A      3.030820  
     355A      3.036304   356A      3.036450   357A      3.047968  
     358A      3.048910   359A      3.061917   360A      3.067373  
     361A      3.072880   362A      3.104216   363A      3.107340  
     364A      3.114331   365A      3.135451   366A      3.136939  
     367A      3.145363   368A      3.159293   369A      3.166940  
     370A      3.171658   371A      3.174929   372A      3.186241  
     373A      3.202447   374A      3.204662   375A      3.218356  
     376A      3.231757   377A      3.234792   378A      3.253597  
     379A      3.254803   380A      3.255376   381A      3.273485  
     382A      3.287706   383A      3.299878   384A      3.314945  
     385A      3.331455   386A      3.337200   387A      3.344053  
     388A      3.368300   389A      3.371602   390A      3.395273  
     391A      3.399105   392A      3.408838   393A      3.409524  
     394A      3.429223   395A      3.433056   396A      3.440600  
     397A      3.444789   398A      3.452583   399A      3.476087  
     400A      3.482213   401A      3.483720   402A      3.488954  
     403A      3.497545   404A      3.500077   405A      3.508917  
     406A      3.521243   407A      3.523946   408A      3.524726  
     409A      3.553183   410A      3.555328   411A      3.562949  
     412A      3.571508   413A      3.585994   414A      3.592340  
     415A      3.619706   416A      3.622857   417A      3.631552  
     418A      3.635526   419A      3.651612   420A      3.690697  
     421A      3.691785   422A      3.696740   423A      3.714423  
     424A      3.738810   425A      3.752213   426A      3.775179  
     427A      3.783734   428A      3.789504   429A      3.811031  
     430A      3.818850   431A      3.820430   432A      3.828391  
     433A      3.844826   434A      3.870914   435A      3.871585  
     436A      3.891934   437A      3.903602   438A      3.911018  
     439A      3.919537   440A      3.925050   441A      3.932393  
     442A      3.938350   443A      3.955515   444A      3.970089  
     445A      3.989057   446A      4.002986   447A      4.020071  
     448A      4.037489   449A      4.053150   450A      4.059656  
     451A      4.077915   452A      4.087812   453A      4.089836  
     454A      4.117040   455A      4.117757   456A      4.121875  
     457A      4.145461   458A      4.149209   459A      4.169737  
     460A      4.188783   461A      4.196634   462A      4.202320  
     463A      4.213217   464A      4.216695   465A      4.237295  
     466A      4.238753   467A      4.255900   468A      4.255931  
     469A      4.260925   470A      4.272834   471A      4.286365  
     472A      4.288132   473A      4.289350   474A      4.310932  
     475A      4.320454   476A      4.348283   477A      4.357621  
     478A      4.378541   479A      4.399230   480A      4.401152  
     481A      4.407285   482A      4.421703   483A      4.426133  
     484A      4.468402   485A      4.488983   486A      4.495934  
     487A      4.497249   488A      4.562156   489A      4.580571  
     490A      4.590914   491A      4.602545   492A      4.655609  
     493A      5.240319   494A      5.319470   495A      5.372021  
     496A      5.427714   497A      5.473833   498A      5.474768  
     499A      5.490123   500A      5.540995   501A      5.589247  
     502A      5.604676   503A      5.616723   504A      5.636356  
     505A      5.656508   506A      5.666760   507A      5.673308  
     508A      5.701325   509A      5.707726   510A      5.737141  
     511A      5.744498   512A      5.758033   513A      5.761777  
     514A      5.769565   515A      5.774580   516A      5.791151  
     517A      5.805408   518A      5.812384   519A      5.824852  
     520A      5.828157   521A      5.834384   522A      5.861548  
     523A      5.879948   524A      5.894456   525A      5.910669  
     526A      5.921703   527A      5.932752   528A      5.940868  
     529A      5.948692   530A      5.957490   531A      5.977847  
     532A      6.008526   533A      6.015281   534A      6.019439  
     535A      6.048990   536A      6.062065   537A      6.075104  
     538A      6.085576   539A      6.096776   540A      6.101987  
     541A      6.116440   542A      6.132247   543A      6.137980  
     544A      6.140957   545A      6.161989   546A      6.166642  
     547A      6.175843   548A      6.197016   549A      6.201706  
     550A      6.204335   551A      6.221714   552A      6.225228  
     553A      6.225737   554A      6.231461   555A      6.238818  
     556A      6.247090   557A      6.254791   558A      6.255552  
     559A      6.270257   560A      6.285109   561A      6.293199  
     562A      6.294243   563A      6.299741   564A      6.304064  
     565A      6.309617   566A      6.323982   567A      6.336123  
     568A      6.350590   569A      6.364081   570A      6.366449  
     571A      6.391008   572A      6.401055   573A      6.407548  
     574A      6.419222   575A      6.430025   576A      6.431259  
     577A      6.435644   578A      6.438673   579A      6.456652  
     580A      6.462901   581A      6.470623   582A      6.482260  
     583A      6.488754   584A      6.496079   585A      6.513620  
     586A      6.514595   587A      6.519953   588A      6.525688  
     589A      6.528259   590A      6.539888   591A      6.541250  
     592A      6.558953   593A      6.563205   594A      6.572192  
     595A      6.580639   596A      6.582998   597A      6.583188  
     598A      6.591576   599A      6.599938   600A      6.608850  
     601A      6.610100   602A      6.612451   603A      6.618888  
     604A      6.622421   605A      6.636390   606A      6.641170  
     607A      6.642239   608A      6.652296   609A      6.661304  
     610A      6.680207   611A      6.682227   612A      6.688188  
     613A      6.690937   614A      6.708008   615A      6.714760  
     616A      6.722922   617A      6.727937   618A      6.731774  
     619A      6.748002   620A      6.755014   621A      6.765082  
     622A      6.773074   623A      6.781114   624A      6.782812  
     625A      6.795932   626A      6.802159   627A      6.813164  
     628A      6.816446   629A      6.818837   630A      6.835143  
     631A      6.848466   632A      6.856077   633A      6.865044  
     634A      6.882959   635A      6.891995   636A      6.898646  
     637A      6.908426   638A      6.912979   639A      6.918987  
     640A      6.931687   641A      6.935044   642A      6.962528  
     643A      6.969066   644A      6.969191   645A      6.982974  
     646A      7.006347   647A      7.017139   648A      7.027646  
     649A      7.048031   650A      7.070682   651A      7.074114  
     652A      7.079782   653A      7.086038   654A      7.097746  
     655A      7.104858   656A      7.133051   657A      7.145959  
     658A      7.146660   659A      7.154072   660A      7.194482  
     661A      7.194586   662A      7.214020   663A      7.216429  
     664A      7.230980   665A      7.235801   666A      7.266707  
     667A      7.270710   668A      7.279982   669A      7.305167  
     670A      7.316971   671A      7.325969   672A      7.333113  
     673A      7.347049   674A      7.357106   675A      7.372710  
     676A      7.374064   677A      7.390923   678A      7.402470  
     679A      7.404857   680A      7.427966   681A      7.436869  
     682A      7.451543   683A      7.453925   684A      7.467251  
     685A      7.488124   686A      7.496242   687A      7.501129  
     688A      7.502868   689A      7.526446   690A      7.528859  
     691A      7.537352   692A      7.582238   693A      7.589397  
     694A      7.604958   695A      7.642978   696A      7.655985  
     697A      7.683078   698A      7.694978   699A      7.695520  
     700A      7.711396   701A      7.715458   702A      7.722858  
     703A      7.735931   704A      7.737718   705A      7.783381  
     706A      7.787132   707A      7.793107   708A      7.811108  
     709A      7.822054   710A      7.822622   711A      7.836875  
     712A      7.852196   713A      7.860925   714A      7.890961  
     715A      7.900800   716A      7.908568   717A      7.910079  
     718A      7.918854   719A      7.921761   720A      7.940869  
     721A      7.942434   722A      7.952165   723A      7.961514  
     724A      7.969810   725A      7.972663   726A      7.984666  
     727A      7.998497   728A      8.000383   729A      8.011702  
     730A      8.025199   731A      8.027596   732A      8.038386  
     733A      8.049928   734A      8.065197   735A      8.065572  
     736A      8.079235   737A      8.088779   738A      8.090373  
     739A      8.106619   740A      8.111998   741A      8.120522  
     742A      8.131508   743A      8.156965   744A      8.163049  
     745A      8.175424   746A      8.178949   747A      8.188727  
     748A      8.196066   749A      8.213123   750A      8.214771  
     751A      8.222165   752A      8.228799   753A      8.235513  
     754A      8.244182   755A      8.260739   756A      8.272906  
     757A      8.279426   758A      8.287400   759A      8.292265  
     760A      8.300290   761A      8.307124   762A      8.324882  
     763A      8.329984   764A      8.352141   765A      8.357462  
     766A      8.359722   767A      8.373173   768A      8.374189  
     769A      8.379212   770A      8.390580   771A      8.411679  
     772A      8.418556   773A      8.428965   774A      8.433336  
     775A      8.444080   776A      8.445884   777A      8.454519  
     778A      8.465756   779A      8.472842   780A      8.481155  
     781A      8.497917   782A      8.507449   783A      8.511541  
     784A      8.523971   785A      8.526850   786A      8.546874  
     787A      8.554683   788A      8.563018   789A      8.573987  
     790A      8.585290   791A      8.609349   792A      8.615181  
     793A      8.625785   794A      8.641106   795A      8.644491  
     796A      8.652771   797A      8.664539   798A      8.679106  
     799A      8.721609   800A      8.734476   801A      8.740264  
     802A      8.749242   803A      8.755445   804A      8.757090  
     805A      8.761647   806A      8.792588   807A      8.806016  
     808A      8.811854   809A      8.818484   810A      8.818527  
     811A      8.835088   812A      8.846883   813A      8.861539  
     814A      8.868318   815A      8.876960   816A      8.902643  
     817A      8.920774   818A      8.929376   819A      8.934691  
     820A      8.936752   821A      8.946164   822A      8.958054  
     823A      8.961228   824A      8.975967   825A      8.983295  
     826A      8.994175   827A      9.006562   828A      9.008439  
     829A      9.014252   830A      9.024843   831A      9.030249  
     832A      9.063468   833A      9.063792   834A      9.086694  
     835A      9.089799   836A      9.112354   837A      9.115240  
     838A      9.121097   839A      9.145159   840A      9.148717  
     841A      9.160890   842A      9.197497   843A      9.197859  
     844A      9.207179   845A      9.224704   846A      9.229406  
     847A      9.232553   848A      9.249043   849A      9.261667  
     850A      9.268363   851A      9.280542   852A      9.291756  
     853A      9.299799   854A      9.311519   855A      9.319336  
     856A      9.319732   857A      9.331415   858A      9.342060  
     859A      9.358717   860A      9.369706   861A      9.383403  
     862A      9.385025   863A      9.388674   864A      9.405912  
     865A      9.411403   866A      9.432721   867A      9.436687  
     868A      9.455535   869A      9.458324   870A      9.467322  
     871A      9.473661   872A      9.489974   873A      9.495046  
     874A      9.506170   875A      9.512379   876A      9.520323  
     877A      9.531185   878A      9.542174   879A      9.551165  
     880A      9.553347   881A      9.558928   882A      9.580234  
     883A      9.581826   884A      9.601135   885A      9.603464  
     886A      9.616177   887A      9.645197   888A      9.655809  
     889A      9.671680   890A      9.675321   891A      9.714404  
     892A      9.717342   893A      9.737420   894A      9.752379  
     895A      9.768523   896A      9.780342   897A      9.797798  
     898A      9.804303   899A      9.857682   900A      9.871963  
     901A     10.182581   902A     10.199625   903A     10.218342  
     904A     10.224158   905A     10.232506   906A     10.237981  
     907A     10.255742   908A     10.256943   909A     10.276842  
     910A     10.283206   911A     10.340817   912A     10.390839  
     913A     10.411767   914A     10.430013   915A     10.481935  
     916A     10.485092   917A     10.508729   918A     10.527351  
     919A     10.552866   920A     10.555166   921A     10.576975  
     922A     10.578191   923A     10.608502   924A     10.632905  
     925A     10.646108   926A     10.664092   927A     10.664754  
     928A     10.675710   929A     10.687373   930A     10.690859  
     931A     10.698078   932A     10.724378   933A     10.729326  
     934A     10.744985   935A     10.757497   936A     10.765817  
     937A     10.781670   938A     10.793602   939A     10.813927  
     940A     10.842720   941A     10.846281   942A     10.880127  
     943A     10.885431   944A     10.897046   945A     10.897923  
     946A     10.903294   947A     10.926231   948A     10.941463  
     949A     10.985434   950A     11.047401   951A     11.051537  
     952A     11.052672   953A     11.125581   954A     11.126790  
     955A     11.777204   956A     11.780521   957A     12.024700  
     958A     12.166231   959A     12.232345   960A     12.320051  
     961A     12.424389   962A     12.578066   963A     12.858016  
     964A     12.895042   965A     12.895103   966A     12.953573  
     967A     12.968239   968A     12.989542   969A     13.009086  
     970A     13.021034   971A     13.064280   972A     13.091672  
     973A     26.619021   974A     26.701449   975A     26.765369  
     976A     26.766906   977A     26.922930   978A     27.170550  
     979A     27.319625   980A     27.357033  

    Final Occupation by Irrep:
              A 
    DOCC [    33 ]

  Energy converged.

  @DF-RHF Final Energy:  -313.56228260479736

   => Energetics <=

    Nuclear Repulsion Energy =            385.1302989402490766
    One-Electron Energy =               -1185.4652487373432450
    Two-Electron Energy =                 486.7726671922969217
    DFT Exchange-Correlation Energy =       0.0000000000000000
    Empirical Dispersion Energy =           0.0000000000000000
    PCM Polarization Energy =               0.0000000000000000
    EFP Energy =                            0.0000000000000000
    Total Energy =                       -313.5622826047972467


  Saving occupied orbitals to File 180.

*** tstop() called on wr38 at Thu Sep 22 07:17:04 2016
Module time:
	user time   =     658.13 seconds =      10.97 minutes
	system time =       9.09 seconds =       0.15 minutes
	total time  =         65 seconds =       1.08 minutes
Total time:
	user time   =     849.26 seconds =      14.15 minutes
	system time =      14.29 seconds =       0.24 minutes
	total time  =         88 seconds =       1.47 minutes


Properties will be evaluated at   0.000000,   0.000000,   0.000000 Bohr

Properties computed using the SCF density matrix

  Nuclear Dipole Moment: (a.u.)
     X:    -0.0001      Y:    -0.0000      Z:    -1.3129

  Electronic Dipole Moment: (a.u.)
     X:     0.0001      Y:     0.0000      Z:     1.3477

  Dipole Moment: (a.u.)
     X:     0.0000      Y:     0.0000      Z:     0.0348     Total:     0.0348

  Dipole Moment: (Debye)
     X:     0.0000      Y:     0.0000      Z:     0.0884     Total:     0.0884


  //>>>>>>>>>>>>>>>>>>>>>>>>>>>>>>>>>>>//
  //               DFMP2               //
  //<<<<<<<<<<<<<<<<<<<<<<<<<<<<<<<<<<<//


*** tstart() called on wr38
*** at Thu Sep 22 07:17:04 2016


*** tstop() called on wr38 at Thu Sep 22 07:17:05 2016
Module time:
	user time   =       3.57 seconds =       0.06 minutes
	system time =       0.11 seconds =       0.00 minutes
	total time  =          1 seconds =       0.02 minutes
Total time:
	user time   =     853.94 seconds =      14.23 minutes
	system time =      14.40 seconds =       0.24 minutes
	total time  =         89 seconds =       1.48 minutes
	 --------------------------------------------------------
	                          DF-MP2                         
	      2nd-Order Density-Fitted Moller-Plesset Theory     
	              RMP2 Wavefunction,  12 Threads             
	                                                         
	        Rob Parrish, Justin Turney, Andy Simmonett,      
	           Ed Hohenstein, and C. David Sherrill          
	 --------------------------------------------------------

   => Auxiliary Basis Set <=

  Basis Set: 
    Number of shells: 510
    Number of basis function: 2046
    Number of Cartesian functions: 2708
    Spherical Harmonics?: true
    Max angular momentum: 5

	 --------------------------------------------------------
	                 NBF =   980, NAUX =  2046
	 --------------------------------------------------------
	   CLASS    FOCC     OCC    AOCC    AVIR     VIR    FVIR
	   PAIRS       8      33      25     947     947       0
	 --------------------------------------------------------

	-----------------------------------------------------------
	 ==================> DF-MP2 Energies <==================== 
	-----------------------------------------------------------
	 Reference Energy          =    -313.5622826047973604 [Eh]
	 Singles Energy            =      -0.0000000000012866 [Eh]
	 Same-Spin Energy          =      -0.3219349311121670 [Eh]
	 Opposite-Spin Energy      =      -1.1817225018670539 [Eh]
	 Correlation Energy        =      -1.5036574329805075 [Eh]
	 Total Energy              =    -315.0659400377778638 [Eh]
	-----------------------------------------------------------
	 ================> DF-SCS-MP2 Energies <================== 
	-----------------------------------------------------------
	 SCS Same-Spin Scale       =       0.3333333333333333 [-]
	 SCS Opposite-Spin Scale   =       1.2000000000000000 [-]
	 SCS Same-Spin Energy      =      -0.1073116437040557 [Eh]
	 SCS Opposite-Spin Energy  =      -1.4180670022404647 [Eh]
	 SCS Correlation Energy    =      -1.5253786459458070 [Eh]
	 SCS Total Energy          =    -315.0876612507431673 [Eh]
	-----------------------------------------------------------


  //>>>>>>>>>>>>>>>>>>>>>>>>>>>>>>>>>>>//
  //    CBS Results: custom function   //
  //<<<<<<<<<<<<<<<<<<<<<<<<<<<<<<<<<<<//


   ==> Helgaker 2-point SCF extrapolation for method: HF <==

   LO-zeta (3) Energy:               -313.542502815204
   HI-zeta (4) Energy:               -313.562282604797
   Alpha (exponent) Value:             1.630000000000
   Beta (coefficient) Value:           3.270601225771

   @Extrapolated HF/(T,Q):          -313.567102388770



   ==> Helgaker 2-point correlated extrapolation for method: MP2 <==

   LO-zeta (3) Energy:               -314.960070400116
   HI-zeta (4) Energy:               -315.065940037778
   Extrapolated Energy:              -315.143196259856

   @Extrapolated MP2/(T,Q):          -315.143196259856



   ==> Helgaker 2-point correlated extrapolation for method: HF <==

   LO-zeta (3) Energy:               -313.542502815204
   HI-zeta (4) Energy:               -313.562282604797
   Extrapolated Energy:              -313.576716505312

   @Extrapolated HF/(T,Q):           -313.576716505312


   ==> Components <==

  ---------------------------------------------------------------------------------------------------------
                          Method / Basis                      Rqd      Energy [Eh]   Variable
  ---------------------------------------------------------------------------------------------------------
                             mp2 / cc-pvtz                      *    -314.96007040   MP2 TOTAL ENERGY
                              hf / cc-pvtz                      *    -313.54250282   HF TOTAL ENERGY
                             mp2 / cc-pvqz                      *    -315.06594004   MP2 TOTAL ENERGY
                              hf / cc-pvqz                      *    -313.56228260   HF TOTAL ENERGY
  ---------------------------------------------------------------------------------------------------------

   ==> Stages <==

  ---------------------------------------------------------------------------------------------------------
      Stage               Method / Basis                       Wt      Energy [Eh]   Scheme
  ---------------------------------------------------------------------------------------------------------
        scf                   hf / cc-pv[tq]z                   1    -313.56710239   scf_xtpl_helgaker_2
       corl                  mp2 / cc-pv[tq]z                   1    -315.14319626   corl_xtpl_helgaker_2
       corl                   hf / cc-pv[tq]z                  -1    -313.57671651   corl_xtpl_helgaker_2
  ---------------------------------------------------------------------------------------------------------

   ==> CBS <==

  ---------------------------------------------------------------------------------------------------------
      Stage               Method / Basis                               Energy [Eh]   Scheme
  ---------------------------------------------------------------------------------------------------------
        scf                   hf / cc-pv[tq]z                        -313.56710239   scf_xtpl_helgaker_2
       corl                  mp2 / cc-pv[tq]z                          -1.56647975   corl_xtpl_helgaker_2
      total                  CBS                                     -315.13358214   
  ---------------------------------------------------------------------------------------------------------

*** Psi4 exiting successfully. Buy a developer a beer!
