    -----------------------------------------------------------------------
          Psi4: An Open-Source Ab Initio Electronic Structure Package
                              Psi4 1.0.0 Driver

                          Git: Rev {master} 6a9a71b dirty

    J. M. Turney, A. C. Simmonett, R. M. Parrish, E. G. Hohenstein,
    F. A. Evangelista, J. T. Fermann, B. J. Mintz, L. A. Burns, J. J. Wilke,
    M. L. Abrams, N. J. Russ, M. L. Leininger, C. L. Janssen, E. T. Seidl,
    W. D. Allen, H. F. Schaefer, R. A. King, E. F. Valeev, C. D. Sherrill,
    and T. D. Crawford, WIREs Comput. Mol. Sci. 2, 556-565 (2012)
    (doi: 10.1002/wcms.93)

                         Additional Contributions by
    A. E. DePrince, U. Bozkaya, A. Yu. Sokolov, D. G. A. Smith, R. Di Remigio,
    R. M. Richard, J. F. Gonthier, H. R. McAlexander, M. Saitow, and
    B. P. Pritchard
    -----------------------------------------------------------------------


    Psi4 started on: Thu Sep 22 07:15:35 2016

    Process ID:  22565
    PSI4DATADIR: /usr/local/hpc5/psi4conda/share/psi4
    Memory level set to 256.000 MB

  ==> Input File <==

--------------------------------------------------------------------------
memory 60 Gb

molecule molecule_06_psi {
0 1
    C            2.565460845865    -1.539787923561     0.037197410635
    H            3.147748730095    -2.214748867944    -0.589614489127
    H            1.520004831152    -1.839645263395    -0.037754799055
    H            2.879903346972    -1.687622446602     1.071881616601
    C           -3.748036014908    -0.648008239816     0.144345834738
    H           -4.112383466486    -1.580317014454     0.575069616021
    H           -4.164640825598    -0.555700126836    -0.859417732992
    H           -4.141492443592     0.174307447954     0.743352099648
    C            2.762390773092    -0.088123877985    -0.385165897288
    H            2.405972395989     0.047436478723    -1.408513366185
    H            3.829972892110     0.141923135586    -0.401882474239
    C           -2.225301834000    -0.603462120657     0.103754909601
    H           -1.831904612677    -0.732156879430     1.113916162692
    H           -1.845896478531    -1.441767508550    -0.488178712068
    C            2.063526798434     0.906022772559     0.542243088954
    H            2.236990886890     1.921136216631     0.173594101499
    H            2.526822107281     0.849505190096     1.531691905003
    C            0.558630868251     0.681028713111     0.683407917899
    H            0.147745177496     1.443191616792     1.352797387945
    H            0.377212122199    -0.280224562476     1.168280814599
    C           -0.187100822364     0.743194093234    -0.645712663186
    H            0.099444352746     1.662606436239    -1.165896727914
    H            0.125940671132    -0.085796560817    -1.287387688315
    C           -1.705479948284     0.699915617658    -0.492937202392
    H           -2.031467197783     1.536896864160     0.133361666045
    H           -2.171225644367     0.845675710931    -1.472098965834
}

set globals {
  reference rhf
  freeze_core true
}
energy(cbs, corl_wfn='mp2', corl_basis='cc-pv[tq]z', scf_basis='cc-pv[tq]z', corl_scheme=corl_xtpl_helgaker_2, scf_scheme=scf_xtpl_helgaker_2)
--------------------------------------------------------------------------
/usr/local/hpc5/psi4conda/lib/python2.7/site-packages/v2rdm_casscf/v2rdm_casscf.so loaded.

  Memory set to  60.000 GiB by Python script.

  //>>>>>>>>>>>>>>>>>>>>>>>>>>>>>>>>>>>//
  //     CBS Setup: custom function    //
  //<<<<<<<<<<<<<<<<<<<<<<<<<<<<<<<<<<<//

    Naive listing of computations required.
             hf / cc-pvtz                  for  HF TOTAL ENERGY
             hf / cc-pvqz                  for  HF TOTAL ENERGY
            mp2 / cc-pvtz                  for  MP2 TOTAL ENERGY
            mp2 / cc-pvqz                  for  MP2 TOTAL ENERGY
             hf / cc-pvtz                  for  HF TOTAL ENERGY
             hf / cc-pvqz                  for  HF TOTAL ENERGY

    Enlightened listing of computations required.
            mp2 / cc-pvtz                  for  MP2 TOTAL ENERGY
            mp2 / cc-pvqz                  for  MP2 TOTAL ENERGY

    Full listing of computations to be obtained (required and bonus).
            mp2 / cc-pvtz                  for  MP2 TOTAL ENERGY
             hf / cc-pvtz                  for  HF TOTAL ENERGY
            mp2 / cc-pvqz                  for  MP2 TOTAL ENERGY
             hf / cc-pvqz                  for  HF TOTAL ENERGY

  //>>>>>>>>>>>>>>>>>>>>>>>>>>>>>>>>>>>//
  //   CBS Computation: MP2 / CC-PVTZ  //
  //<<<<<<<<<<<<<<<<<<<<<<<<<<<<<<<<<<<//

    SCF Algorithm Type (re)set to DF.

*** tstart() called on wr39
*** at Thu Sep 22 07:15:36 2016


         ---------------------------------------------------------
                                   SCF
            by Justin Turney, Rob Parrish, and Andy Simmonett
                              RHF Reference
                       12 Threads,  60000 MiB Core
         ---------------------------------------------------------

  ==> Geometry <==

    Molecular point group: c1
    Full point group: C1

    Geometry (in Angstrom), charge = 0, multiplicity = 1:

       Center              X                  Y                   Z               Mass       
    ------------   -----------------  -----------------  -----------------  -----------------
           C          2.565460845865    -1.539787923561     0.037197410635    12.000000000000
           H          3.147748730095    -2.214748867944    -0.589614489127     1.007825032070
           H          1.520004831152    -1.839645263395    -0.037754799055     1.007825032070
           H          2.879903346972    -1.687622446602     1.071881616601     1.007825032070
           C         -3.748036014908    -0.648008239816     0.144345834738    12.000000000000
           H         -4.112383466486    -1.580317014454     0.575069616021     1.007825032070
           H         -4.164640825598    -0.555700126836    -0.859417732992     1.007825032070
           H         -4.141492443592     0.174307447954     0.743352099648     1.007825032070
           C          2.762390773092    -0.088123877985    -0.385165897288    12.000000000000
           H          2.405972395989     0.047436478723    -1.408513366185     1.007825032070
           H          3.829972892110     0.141923135586    -0.401882474239     1.007825032070
           C         -2.225301834000    -0.603462120657     0.103754909601    12.000000000000
           H         -1.831904612677    -0.732156879430     1.113916162692     1.007825032070
           H         -1.845896478531    -1.441767508550    -0.488178712068     1.007825032070
           C          2.063526798434     0.906022772559     0.542243088954    12.000000000000
           H          2.236990886890     1.921136216631     0.173594101499     1.007825032070
           H          2.526822107281     0.849505190096     1.531691905003     1.007825032070
           C          0.558630868251     0.681028713111     0.683407917899    12.000000000000
           H          0.147745177496     1.443191616792     1.352797387945     1.007825032070
           H          0.377212122199    -0.280224562476     1.168280814599     1.007825032070
           C         -0.187100822364     0.743194093234    -0.645712663186    12.000000000000
           H          0.099444352746     1.662606436239    -1.165896727914     1.007825032070
           H          0.125940671132    -0.085796560817    -1.287387688315     1.007825032070
           C         -1.705479948284     0.699915617658    -0.492937202392    12.000000000000
           H         -2.031467197783     1.536896864160     0.133361666045     1.007825032070
           H         -2.171225644367     0.845675710931    -1.472098965834     1.007825032070

  Running in c1 symmetry.

  Rotational constants: A =      0.12790  B =      0.02609  C =      0.02393 [cm^-1]
  Rotational constants: A =   3834.49253  B =    782.16369  C =    717.32888 [MHz]
  Nuclear repulsion =  395.414362725996170

  Charge       = 0
  Multiplicity = 1
  Electrons    = 66
  Nalpha       = 33
  Nbeta        = 33

  ==> Algorithm <==

  SCF Algorithm Type is DF.
  DIIS enabled.
  MOM disabled.
  Fractional occupation disabled.
  Guess Type is SAD.
  Energy threshold   = 1.00e-08
  Density threshold  = 1.00e-08
  Integral threshold = 0.00e+00

  ==> Primary Basis <==

  Basis Set: CC-PVTZ
    Number of shells: 188
    Number of basis function: 492
    Number of Cartesian functions: 550
    Spherical Harmonics?: true
    Max angular momentum: 3

  ==> Pre-Iterations <==

   -------------------------------------------------------
    Irrep   Nso     Nmo     Nalpha   Nbeta   Ndocc  Nsocc
   -------------------------------------------------------
     A        492     492       0       0       0       0
   -------------------------------------------------------
    Total     492     492      33      33      33       0
   -------------------------------------------------------

  ==> Integral Setup <==

  ==> DFJK: Density-Fitted J/K Matrices <==

    J tasked:                  Yes
    K tasked:                  Yes
    wK tasked:                  No
    OpenMP threads:             12
    Integrals threads:          12
    Memory (MB):             42915
    Algorithm:                Core
    Integral Cache:           NONE
    Schwarz Cutoff:          1E-12
    Fitting Condition:       1E-12

   => Auxiliary Basis Set <=

  Basis Set: 
    Number of shells: 380
    Number of basis function: 1172
    Number of Cartesian functions: 1398
    Spherical Harmonics?: true
    Max angular momentum: 4

  Minimum eigenvalue in the overlap matrix is 2.6379066106E-04.
  Using Symmetric Orthogonalization.
  SCF Guess: Superposition of Atomic Densities via on-the-fly atomic UHF.

  ==> Iterations <==

                           Total Energy        Delta E     RMS |[F,P]|

   @DF-RHF iter   0:  -317.45065099118881   -3.17451e+02   1.14324e-02 
   @DF-RHF iter   1:  -313.34259618979604    4.10805e+00   9.81223e-04 
   @DF-RHF iter   2:  -313.52063401321448   -1.78038e-01   2.97627e-04 DIIS
   @DF-RHF iter   3:  -313.53762676936901   -1.69928e-02   1.13842e-04 DIIS
   @DF-RHF iter   4:  -313.54001836367490   -2.39159e-03   2.50397e-05 DIIS
   @DF-RHF iter   5:  -313.54017347839238   -1.55115e-04   5.29282e-06 DIIS
   @DF-RHF iter   6:  -313.54018162235820   -8.14397e-06   1.43151e-06 DIIS
   @DF-RHF iter   7:  -313.54018210857771   -4.86220e-07   3.68365e-07 DIIS
   @DF-RHF iter   8:  -313.54018213886206   -3.02844e-08   9.79937e-08 DIIS
   @DF-RHF iter   9:  -313.54018214134055   -2.47849e-09   2.60263e-08 DIIS
   @DF-RHF iter  10:  -313.54018214152654   -1.85992e-10   8.35519e-09 DIIS

  ==> Post-Iterations <==

    Orbital Energies (a.u.)
    -----------------------

    Doubly Occupied:                                                      

       1A    -11.212261     2A    -11.211943     3A    -11.210644  
       4A    -11.210506     5A    -11.209978     6A    -11.208795  
       7A    -11.207000     8A    -11.206807     9A     -1.095339  
      10A     -1.060746    11A     -1.006464    12A     -0.948917  
      13A     -0.881288    14A     -0.836605    15A     -0.788858  
      16A     -0.750565    17A     -0.645429    18A     -0.628713  
      19A     -0.621373    20A     -0.583311    21A     -0.579771  
      22A     -0.564957    23A     -0.541470    24A     -0.529114  
      25A     -0.521633    26A     -0.497638    27A     -0.491902  
      28A     -0.471794    29A     -0.468531    30A     -0.459562  
      31A     -0.445363    32A     -0.437785    33A     -0.436521  

    Virtual:                                                              

      34A      0.140477    35A      0.150385    36A      0.155743  
      37A      0.158980    38A      0.176463    39A      0.190865  
      40A      0.192803    41A      0.210538    42A      0.215074  
      43A      0.224522    44A      0.225631    45A      0.234990  
      46A      0.251231    47A      0.255938    48A      0.265209  
      49A      0.266989    50A      0.278233    51A      0.284317  
      52A      0.321628    53A      0.333736    54A      0.347842  
      55A      0.353200    56A      0.364214    57A      0.370120  
      58A      0.384362    59A      0.393951    60A      0.405509  
      61A      0.424035    62A      0.433269    63A      0.439026  
      64A      0.442343    65A      0.452855    66A      0.469252  
      67A      0.484220    68A      0.492866    69A      0.511581  
      70A      0.537562    71A      0.549301    72A      0.566004  
      73A      0.582476    74A      0.585688    75A      0.592109  
      76A      0.606883    77A      0.613737    78A      0.620358  
      79A      0.623673    80A      0.627566    81A      0.643361  
      82A      0.644453    83A      0.647942    84A      0.653919  
      85A      0.663741    86A      0.670204    87A      0.672273  
      88A      0.676476    89A      0.682719    90A      0.687949  
      91A      0.696621    92A      0.698116    93A      0.703786  
      94A      0.722920    95A      0.729207    96A      0.731353  
      97A      0.749304    98A      0.754710    99A      0.760657  
     100A      0.775259   101A      0.800302   102A      0.829429  
     103A      0.851295   104A      0.853188   105A      0.873224  
     106A      0.877627   107A      0.914129   108A      0.920257  
     109A      0.937250   110A      0.952913   111A      0.983634  
     112A      0.984784   113A      0.998620   114A      1.009480  
     115A      1.028751   116A      1.050480   117A      1.057885  
     118A      1.070003   119A      1.085068   120A      1.086381  
     121A      1.103036   122A      1.114959   123A      1.129255  
     124A      1.131814   125A      1.160897   126A      1.190150  
     127A      1.209185   128A      1.215604   129A      1.218766  
     130A      1.225247   131A      1.241493   132A      1.255110  
     133A      1.263059   134A      1.275570   135A      1.283542  
     136A      1.299703   137A      1.304561   138A      1.307109  
     139A      1.313611   140A      1.322399   141A      1.339527  
     142A      1.343478   143A      1.355143   144A      1.363352  
     145A      1.374766   146A      1.382835   147A      1.393966  
     148A      1.399383   149A      1.402476   150A      1.407991  
     151A      1.412771   152A      1.430305   153A      1.437983  
     154A      1.443899   155A      1.444444   156A      1.457383  
     157A      1.469010   158A      1.482458   159A      1.490240  
     160A      1.501966   161A      1.503575   162A      1.516496  
     163A      1.524152   164A      1.529844   165A      1.556603  
     166A      1.558485   167A      1.572102   168A      1.583997  
     169A      1.586637   170A      1.595862   171A      1.604408  
     172A      1.617537   173A      1.622353   174A      1.631499  
     175A      1.644074   176A      1.649209   177A      1.660062  
     178A      1.672928   179A      1.692648   180A      1.705435  
     181A      1.730440   182A      1.731581   183A      1.743864  
     184A      1.751616   185A      1.755565   186A      1.784557  
     187A      1.798446   188A      1.802800   189A      1.815414  
     190A      1.834248   191A      1.849597   192A      1.861159  
     193A      1.877193   194A      1.889167   195A      1.909543  
     196A      1.951409   197A      1.966904   198A      1.982190  
     199A      2.014908   200A      2.036781   201A      2.120607  
     202A      2.159829   203A      2.524835   204A      2.540531  
     205A      2.565494   206A      2.594399   207A      2.622635  
     208A      2.651664   209A      2.664025   210A      2.671983  
     211A      2.691725   212A      2.701570   213A      2.714473  
     214A      2.733835   215A      2.753041   216A      2.760053  
     217A      2.772637   218A      2.785739   219A      2.793565  
     220A      2.801940   221A      2.819738   222A      2.845916  
     223A      2.862236   224A      2.868322   225A      2.885088  
     226A      2.893731   227A      2.907622   228A      2.924236  
     229A      2.927641   230A      2.946394   231A      2.950007  
     232A      2.957960   233A      2.972657   234A      2.995974  
     235A      3.007298   236A      3.017697   237A      3.020420  
     238A      3.036340   239A      3.037268   240A      3.061182  
     241A      3.068916   242A      3.078760   243A      3.098144  
     244A      3.107979   245A      3.123577   246A      3.127569  
     247A      3.139537   248A      3.143634   249A      3.153010  
     250A      3.179797   251A      3.188224   252A      3.203546  
     253A      3.214308   254A      3.232001   255A      3.249574  
     256A      3.256346   257A      3.261465   258A      3.278130  
     259A      3.290136   260A      3.308300   261A      3.321937  
     262A      3.338533   263A      3.351285   264A      3.356459  
     265A      3.365771   266A      3.368733   267A      3.375749  
     268A      3.388543   269A      3.401639   270A      3.410885  
     271A      3.424595   272A      3.426588   273A      3.434574  
     274A      3.439876   275A      3.456753   276A      3.462501  
     277A      3.474359   278A      3.482646   279A      3.485248  
     280A      3.493029   281A      3.502061   282A      3.503207  
     283A      3.517360   284A      3.520629   285A      3.524436  
     286A      3.537662   287A      3.542954   288A      3.552692  
     289A      3.561346   290A      3.580701   291A      3.584539  
     292A      3.597954   293A      3.603120   294A      3.613889  
     295A      3.631295   296A      3.653557   297A      3.661192  
     298A      3.688416   299A      3.694933   300A      3.700518  
     301A      3.708826   302A      3.725823   303A      3.730047  
     304A      3.759742   305A      3.770572   306A      3.773884  
     307A      3.779721   308A      3.790946   309A      3.812937  
     310A      3.822858   311A      3.831235   312A      3.845593  
     313A      3.850768   314A      3.866684   315A      3.882679  
     316A      3.892429   317A      3.909738   318A      3.925714  
     319A      3.926514   320A      3.945114   321A      3.950745  
     322A      3.963997   323A      3.978588   324A      4.003636  
     325A      4.003923   326A      4.032435   327A      4.037788  
     328A      4.047108   329A      4.057035   330A      4.075990  
     331A      4.084415   332A      4.097300   333A      4.112439  
     334A      4.114620   335A      4.123929   336A      4.139947  
     337A      4.145548   338A      4.151823   339A      4.156293  
     340A      4.169048   341A      4.175675   342A      4.185726  
     343A      4.198985   344A      4.205045   345A      4.216844  
     346A      4.221898   347A      4.229503   348A      4.234699  
     349A      4.253036   350A      4.263850   351A      4.277436  
     352A      4.280137   353A      4.293883   354A      4.302203  
     355A      4.318048   356A      4.326265   357A      4.332448  
     358A      4.349565   359A      4.370727   360A      4.379285  
     361A      4.394279   362A      4.405631   363A      4.411979  
     364A      4.416061   365A      4.431256   366A      4.438461  
     367A      4.448091   368A      4.454165   369A      4.459177  
     370A      4.479562   371A      4.481435   372A      4.491411  
     373A      4.497861   374A      4.515554   375A      4.525859  
     376A      4.537532   377A      4.543941   378A      4.548912  
     379A      4.564627   380A      4.572096   381A      4.586814  
     382A      4.587578   383A      4.611026   384A      4.614669  
     385A      4.638274   386A      4.652497   387A      4.659429  
     388A      4.665607   389A      4.678246   390A      4.693434  
     391A      4.698442   392A      4.718327   393A      4.747548  
     394A      4.755323   395A      4.769191   396A      4.782131  
     397A      4.793613   398A      4.796404   399A      4.807362  
     400A      4.833814   401A      4.852527   402A      4.857270  
     403A      4.879158   404A      4.930844   405A      4.967139  
     406A      4.994266   407A      5.006345   408A      5.022061  
     409A      5.042818   410A      5.048603   411A      5.078386  
     412A      5.083836   413A      5.099024   414A      5.105280  
     415A      5.113367   416A      5.125221   417A      5.175150  
     418A      5.178993   419A      5.201464   420A      5.216553  
     421A      5.226948   422A      5.244257   423A      5.248636  
     424A      5.260707   425A      5.273611   426A      5.277489  
     427A      5.310721   428A      5.319793   429A      5.326233  
     430A      5.351660   431A      5.374292   432A      5.383728  
     433A      5.395357   434A      5.399709   435A      5.410288  
     436A      5.430783   437A      5.444453   438A      5.480850  
     439A      5.498898   440A      5.503054   441A      5.536321  
     442A      5.563165   443A      5.582933   444A      5.591502  
     445A      5.625848   446A      5.635389   447A      5.657387  
     448A      5.677650   449A      5.708123   450A      5.727794  
     451A      5.730819   452A      5.738205   453A      5.746728  
     454A      5.762558   455A      5.771333   456A      5.799164  
     457A      5.818532   458A      5.822682   459A      5.835483  
     460A      5.860957   461A      5.870526   462A      5.883918  
     463A      5.890119   464A      5.912891   465A      5.913924  
     466A      5.931526   467A      5.968436   468A      5.969792  
     469A      5.999267   470A      6.014541   471A      6.075739  
     472A      6.097384   473A      6.142531   474A      6.158379  
     475A      6.312134   476A      6.324871   477A      6.334350  
     478A      6.346806   479A      6.376459   480A      6.414198  
     481A      6.462278   482A      6.472498   483A      6.500281  
     484A      6.551469   485A     13.129064   486A     13.196438  
     487A     13.260045   488A     13.642038   489A     13.831048  
     490A     13.937778   491A     14.208504   492A     14.224777  

    Final Occupation by Irrep:
              A 
    DOCC [    33 ]

  Energy converged.

  @DF-RHF Final Energy:  -313.54018214152654

   => Energetics <=

    Nuclear Repulsion Energy =            395.4143627259961704
    One-Electron Energy =               -1205.9659215427893741
    Two-Electron Energy =                 497.0113766752667175
    DFT Exchange-Correlation Energy =       0.0000000000000000
    Empirical Dispersion Energy =           0.0000000000000000
    PCM Polarization Energy =               0.0000000000000000
    EFP Energy =                            0.0000000000000000
    Total Energy =                       -313.5401821415264862


  Saving occupied orbitals to File 180.

*** tstop() called on wr39 at Thu Sep 22 07:15:50 2016
Module time:
	user time   =     143.20 seconds =       2.39 minutes
	system time =       2.55 seconds =       0.04 minutes
	total time  =         14 seconds =       0.23 minutes
Total time:
	user time   =     143.20 seconds =       2.39 minutes
	system time =       2.55 seconds =       0.04 minutes
	total time  =         14 seconds =       0.23 minutes


Properties will be evaluated at   0.000000,   0.000000,   0.000000 Bohr

Properties computed using the SCF density matrix

  Nuclear Dipole Moment: (a.u.)
     X:    -0.9386      Y:    -1.6830      Z:     0.1436

  Electronic Dipole Moment: (a.u.)
     X:     0.9671      Y:     1.6980      Z:    -0.1484

  Dipole Moment: (a.u.)
     X:     0.0285      Y:     0.0150      Z:    -0.0048     Total:     0.0325

  Dipole Moment: (Debye)
     X:     0.0723      Y:     0.0381      Z:    -0.0122     Total:     0.0826


  //>>>>>>>>>>>>>>>>>>>>>>>>>>>>>>>>>>>//
  //               DFMP2               //
  //<<<<<<<<<<<<<<<<<<<<<<<<<<<<<<<<<<<//


*** tstart() called on wr39
*** at Thu Sep 22 07:15:50 2016


*** tstop() called on wr39 at Thu Sep 22 07:15:51 2016
Module time:
	user time   =       2.42 seconds =       0.04 minutes
	system time =       0.08 seconds =       0.00 minutes
	total time  =          1 seconds =       0.02 minutes
Total time:
	user time   =     146.00 seconds =       2.43 minutes
	system time =       2.65 seconds =       0.04 minutes
	total time  =         15 seconds =       0.25 minutes
	 --------------------------------------------------------
	                          DF-MP2                         
	      2nd-Order Density-Fitted Moller-Plesset Theory     
	              RMP2 Wavefunction,  12 Threads             
	                                                         
	        Rob Parrish, Justin Turney, Andy Simmonett,      
	           Ed Hohenstein, and C. David Sherrill          
	 --------------------------------------------------------

   => Auxiliary Basis Set <=

  Basis Set: 
    Number of shells: 364
    Number of basis function: 1188
    Number of Cartesian functions: 1438
    Spherical Harmonics?: true
    Max angular momentum: 4

	 --------------------------------------------------------
	                 NBF =   492, NAUX =  1188
	 --------------------------------------------------------
	   CLASS    FOCC     OCC    AOCC    AVIR     VIR    FVIR
	   PAIRS       8      33      25     459     459       0
	 --------------------------------------------------------

	-----------------------------------------------------------
	 ==================> DF-MP2 Energies <==================== 
	-----------------------------------------------------------
	 Reference Energy          =    -313.5401821415265431 [Eh]
	 Singles Energy            =      -0.0000000000016272 [Eh]
	 Same-Spin Energy          =      -0.3127561279037897 [Eh]
	 Opposite-Spin Energy      =      -1.1071238218395814 [Eh]
	 Correlation Energy        =      -1.4198799497449981 [Eh]
	 Total Energy              =    -314.9600620912715385 [Eh]
	-----------------------------------------------------------
	 ================> DF-SCS-MP2 Energies <================== 
	-----------------------------------------------------------
	 SCS Same-Spin Scale       =       0.3333333333333333 [-]
	 SCS Opposite-Spin Scale   =       1.2000000000000000 [-]
	 SCS Same-Spin Energy      =      -0.1042520426345966 [Eh]
	 SCS Opposite-Spin Energy  =      -1.3285485862074975 [Eh]
	 SCS Correlation Energy    =      -1.4328006288437212 [Eh]
	 SCS Total Energy          =    -314.9729827703702654 [Eh]
	-----------------------------------------------------------


  //>>>>>>>>>>>>>>>>>>>>>>>>>>>>>>>>>>>//
  //   CBS Computation: MP2 / CC-PVQZ  //
  //<<<<<<<<<<<<<<<<<<<<<<<<<<<<<<<<<<<//

    SCF Algorithm Type (re)set to DF.

*** tstart() called on wr39
*** at Thu Sep 22 07:15:58 2016


         ---------------------------------------------------------
                                   SCF
            by Justin Turney, Rob Parrish, and Andy Simmonett
                              RHF Reference
                       12 Threads,  60000 MiB Core
         ---------------------------------------------------------

  ==> Geometry <==

    Molecular point group: c1
    Full point group: C1

    Geometry (in Angstrom), charge = 0, multiplicity = 1:

       Center              X                  Y                   Z               Mass       
    ------------   -----------------  -----------------  -----------------  -----------------
           C          2.565460845865    -1.539787923561     0.037197410635    12.000000000000
           H          3.147748730095    -2.214748867944    -0.589614489127     1.007825032070
           H          1.520004831152    -1.839645263395    -0.037754799055     1.007825032070
           H          2.879903346972    -1.687622446602     1.071881616601     1.007825032070
           C         -3.748036014908    -0.648008239816     0.144345834738    12.000000000000
           H         -4.112383466486    -1.580317014454     0.575069616021     1.007825032070
           H         -4.164640825598    -0.555700126836    -0.859417732992     1.007825032070
           H         -4.141492443592     0.174307447954     0.743352099648     1.007825032070
           C          2.762390773092    -0.088123877985    -0.385165897288    12.000000000000
           H          2.405972395989     0.047436478723    -1.408513366185     1.007825032070
           H          3.829972892110     0.141923135586    -0.401882474239     1.007825032070
           C         -2.225301834000    -0.603462120657     0.103754909601    12.000000000000
           H         -1.831904612677    -0.732156879430     1.113916162692     1.007825032070
           H         -1.845896478531    -1.441767508550    -0.488178712068     1.007825032070
           C          2.063526798434     0.906022772559     0.542243088954    12.000000000000
           H          2.236990886890     1.921136216631     0.173594101499     1.007825032070
           H          2.526822107281     0.849505190096     1.531691905003     1.007825032070
           C          0.558630868251     0.681028713111     0.683407917899    12.000000000000
           H          0.147745177496     1.443191616792     1.352797387945     1.007825032070
           H          0.377212122199    -0.280224562476     1.168280814599     1.007825032070
           C         -0.187100822364     0.743194093234    -0.645712663186    12.000000000000
           H          0.099444352746     1.662606436239    -1.165896727914     1.007825032070
           H          0.125940671132    -0.085796560817    -1.287387688315     1.007825032070
           C         -1.705479948284     0.699915617658    -0.492937202392    12.000000000000
           H         -2.031467197783     1.536896864160     0.133361666045     1.007825032070
           H         -2.171225644367     0.845675710931    -1.472098965834     1.007825032070

  Running in c1 symmetry.

  Rotational constants: A =      0.12790  B =      0.02609  C =      0.02393 [cm^-1]
  Rotational constants: A =   3834.49253  B =    782.16369  C =    717.32888 [MHz]
  Nuclear repulsion =  395.414362725996170

  Charge       = 0
  Multiplicity = 1
  Electrons    = 66
  Nalpha       = 33
  Nbeta        = 33

  ==> Algorithm <==

  SCF Algorithm Type is DF.
  DIIS enabled.
  MOM disabled.
  Fractional occupation disabled.
  Guess Type is SAD.
  Energy threshold   = 1.00e-08
  Density threshold  = 1.00e-08
  Integral threshold = 0.00e+00

  ==> Primary Basis <==

  Basis Set: CC-PVQZ
    Number of shells: 300
    Number of basis function: 980
    Number of Cartesian functions: 1190
    Spherical Harmonics?: true
    Max angular momentum: 4

  ==> Pre-Iterations <==

   -------------------------------------------------------
    Irrep   Nso     Nmo     Nalpha   Nbeta   Ndocc  Nsocc
   -------------------------------------------------------
     A        980     980       0       0       0       0
   -------------------------------------------------------
    Total     980     980      33      33      33       0
   -------------------------------------------------------

  ==> Integral Setup <==

  ==> DFJK: Density-Fitted J/K Matrices <==

    J tasked:                  Yes
    K tasked:                  Yes
    wK tasked:                  No
    OpenMP threads:             12
    Integrals threads:          12
    Memory (MB):             42915
    Algorithm:                Core
    Integral Cache:           NONE
    Schwarz Cutoff:          1E-12
    Fitting Condition:       1E-12

   => Auxiliary Basis Set <=

  Basis Set: 
    Number of shells: 458
    Number of basis function: 1766
    Number of Cartesian functions: 2324
    Spherical Harmonics?: true
    Max angular momentum: 5

  Minimum eigenvalue in the overlap matrix is 4.2822476841E-05.
  Using Symmetric Orthogonalization.
  SCF Guess: Superposition of Atomic Densities via on-the-fly atomic UHF.

  ==> Iterations <==

                           Total Energy        Delta E     RMS |[F,P]|

   @DF-RHF iter   0:  -317.06461416885634   -3.17065e+02   5.69112e-03 
   @DF-RHF iter   1:  -313.35178281573701    3.71283e+00   4.93829e-04 
   @DF-RHF iter   2:  -313.53548545046147   -1.83703e-01   1.57524e-04 DIIS
   @DF-RHF iter   3:  -313.55704932030130   -2.15639e-02   6.34340e-05 DIIS
   @DF-RHF iter   4:  -313.55981512407789   -2.76580e-03   1.05926e-05 DIIS
   @DF-RHF iter   5:  -313.55993228733746   -1.17163e-04   2.41516e-06 DIIS
   @DF-RHF iter   6:  -313.55993791571723   -5.62838e-06   6.57580e-07 DIIS
   @DF-RHF iter   7:  -313.55993822039591   -3.04679e-07   1.36830e-07 DIIS
   @DF-RHF iter   8:  -313.55993823862570   -1.82298e-08   2.73264e-08 DIIS
   @DF-RHF iter   9:  -313.55993823937365   -7.47946e-10   8.69784e-09 DIIS

  ==> Post-Iterations <==

    Orbital Energies (a.u.)
    -----------------------

    Doubly Occupied:                                                      

       1A    -11.211143     2A    -11.210825     3A    -11.209530  
       4A    -11.209401     5A    -11.208855     6A    -11.207652  
       7A    -11.206015     8A    -11.205813     9A     -1.095028  
      10A     -1.060455    11A     -1.006194    12A     -0.948691  
      13A     -0.881101    14A     -0.836468    15A     -0.788765  
      16A     -0.750488    17A     -0.645477    18A     -0.628773  
      19A     -0.621444    20A     -0.583389    21A     -0.579852  
      22A     -0.565047    23A     -0.541571    24A     -0.529235  
      25A     -0.521730    26A     -0.497755    27A     -0.492044  
      28A     -0.471932    29A     -0.468684    30A     -0.459691  
      31A     -0.445514    32A     -0.437916    33A     -0.436633  

    Virtual:                                                              

      34A      0.112411    35A      0.122360    36A      0.126489  
      37A      0.129514    38A      0.147419    39A      0.159226  
      40A      0.161447    41A      0.176895    42A      0.181732  
      43A      0.187404    44A      0.193010    45A      0.201603  
      46A      0.217241    47A      0.222536    48A      0.227252  
      49A      0.229937    50A      0.244602    51A      0.246211  
      52A      0.269192    53A      0.282309    54A      0.293550  
      55A      0.296890    56A      0.302962    57A      0.309310  
      58A      0.318327    59A      0.322097    60A      0.336273  
      61A      0.350855    62A      0.361361    63A      0.365709  
      64A      0.379441    65A      0.388364    66A      0.402675  
      67A      0.414238    68A      0.421110    69A      0.427181  
      70A      0.437096    71A      0.444171    72A      0.449750  
      73A      0.464516    74A      0.465537    75A      0.469956  
      76A      0.474967    77A      0.480959    78A      0.496172  
      79A      0.510955    80A      0.513538    81A      0.520270  
      82A      0.521472    83A      0.528316    84A      0.531106  
      85A      0.537685    86A      0.541298    87A      0.546878  
      88A      0.552706    89A      0.557834    90A      0.560017  
      91A      0.570328    92A      0.584157    93A      0.585770  
      94A      0.592453    95A      0.599742    96A      0.608104  
      97A      0.617226    98A      0.623713    99A      0.638684  
     100A      0.653101   101A      0.660440   102A      0.697683  
     103A      0.717997   104A      0.732519   105A      0.739402  
     106A      0.755339   107A      0.758908   108A      0.765178  
     109A      0.776282   110A      0.789510   111A      0.806789  
     112A      0.814208   113A      0.818104   114A      0.824339  
     115A      0.841718   116A      0.845161   117A      0.855537  
     118A      0.857206   119A      0.862665   120A      0.872366  
     121A      0.878945   122A      0.883450   123A      0.894550  
     124A      0.900400   125A      0.906032   126A      0.912278  
     127A      0.920733   128A      0.937863   129A      0.948168  
     130A      0.950505   131A      0.958588   132A      0.963054  
     133A      0.978248   134A      0.990898   135A      0.996522  
     136A      1.003881   137A      1.008317   138A      1.019674  
     139A      1.030348   140A      1.036290   141A      1.041223  
     142A      1.047937   143A      1.049526   144A      1.055364  
     145A      1.058260   146A      1.064394   147A      1.072140  
     148A      1.081265   149A      1.089472   150A      1.098559  
     151A      1.106106   152A      1.114556   153A      1.122265  
     154A      1.125409   155A      1.129239   156A      1.138939  
     157A      1.143308   158A      1.147755   159A      1.150773  
     160A      1.157169   161A      1.159382   162A      1.168516  
     163A      1.176161   164A      1.180071   165A      1.191306  
     166A      1.194848   167A      1.196670   168A      1.205992  
     169A      1.212564   170A      1.218841   171A      1.223744  
     172A      1.230487   173A      1.241314   174A      1.244842  
     175A      1.249107   176A      1.254184   177A      1.264592  
     178A      1.268084   179A      1.279973   180A      1.292709  
     181A      1.302047   182A      1.317551   183A      1.327834  
     184A      1.336651   185A      1.347579   186A      1.350328  
     187A      1.357011   188A      1.366327   189A      1.378615  
     190A      1.387384   191A      1.393741   192A      1.417862  
     193A      1.435932   194A      1.448566   195A      1.459031  
     196A      1.484972   197A      1.509098   198A      1.521163  
     199A      1.531458   200A      1.542948   201A      1.562560  
     202A      1.615799   203A      1.654054   204A      1.666124  
     205A      1.695494   206A      1.713199   207A      1.733120  
     208A      1.740010   209A      1.750684   210A      1.762313  
     211A      1.781561   212A      1.790182   213A      1.799945  
     214A      1.811798   215A      1.829483   216A      1.830033  
     217A      1.843021   218A      1.856734   219A      1.871853  
     220A      1.887663   221A      1.891070   222A      1.912610  
     223A      1.947497   224A      1.962806   225A      1.975673  
     226A      1.984739   227A      1.992317   228A      1.995483  
     229A      2.008962   230A      2.016342   231A      2.023694  
     232A      2.029087   233A      2.043183   234A      2.047270  
     235A      2.058912   236A      2.059457   237A      2.065194  
     238A      2.073682   239A      2.081554   240A      2.085143  
     241A      2.090634   242A      2.093938   243A      2.108842  
     244A      2.119299   245A      2.123912   246A      2.128219  
     247A      2.129869   248A      2.146965   249A      2.156101  
     250A      2.160076   251A      2.167195   252A      2.186535  
     253A      2.189044   254A      2.194240   255A      2.210202  
     256A      2.216528   257A      2.225996   258A      2.227829  
     259A      2.231896   260A      2.246420   261A      2.254371  
     262A      2.255072   263A      2.261327   264A      2.271488  
     265A      2.279045   266A      2.281994   267A      2.286931  
     268A      2.289476   269A      2.301397   270A      2.307746  
     271A      2.315565   272A      2.319551   273A      2.325268  
     274A      2.328171   275A      2.343997   276A      2.350044  
     277A      2.353599   278A      2.366418   279A      2.370545  
     280A      2.376100   281A      2.384294   282A      2.387214  
     283A      2.394876   284A      2.404178   285A      2.417891  
     286A      2.422066   287A      2.424478   288A      2.433815  
     289A      2.443766   290A      2.463686   291A      2.474559  
     292A      2.479183   293A      2.490725   294A      2.509352  
     295A      2.513274   296A      2.521228   297A      2.525100  
     298A      2.536565   299A      2.551382   300A      2.563685  
     301A      2.567430   302A      2.578866   303A      2.584228  
     304A      2.598988   305A      2.608000   306A      2.611007  
     307A      2.624208   308A      2.635078   309A      2.648148  
     310A      2.656952   311A      2.664938   312A      2.680517  
     313A      2.681438   314A      2.707409   315A      2.714598  
     316A      2.721984   317A      2.725605   318A      2.729136  
     319A      2.740697   320A      2.751777   321A      2.756284  
     322A      2.770308   323A      2.779032   324A      2.788584  
     325A      2.797563   326A      2.798078   327A      2.805153  
     328A      2.809579   329A      2.819339   330A      2.824541  
     331A      2.830262   332A      2.843600   333A      2.854613  
     334A      2.855846   335A      2.860938   336A      2.866087  
     337A      2.882239   338A      2.889258   339A      2.903717  
     340A      2.906098   341A      2.911127   342A      2.914253  
     343A      2.929218   344A      2.944582   345A      2.950351  
     346A      2.958460   347A      2.964480   348A      2.974582  
     349A      2.983257   350A      2.995265   351A      3.001712  
     352A      3.015745   353A      3.019931   354A      3.024963  
     355A      3.033701   356A      3.045502   357A      3.056066  
     358A      3.077464   359A      3.082822   360A      3.098668  
     361A      3.101544   362A      3.114196   363A      3.123313  
     364A      3.134630   365A      3.155283   366A      3.160019  
     367A      3.162951   368A      3.165320   369A      3.184746  
     370A      3.186017   371A      3.190633   372A      3.202854  
     373A      3.220415   374A      3.229275   375A      3.235424  
     376A      3.243110   377A      3.259038   378A      3.275772  
     379A      3.284626   380A      3.285993   381A      3.302536  
     382A      3.312936   383A      3.317542   384A      3.323977  
     385A      3.336694   386A      3.342537   387A      3.354198  
     388A      3.359625   389A      3.371625   390A      3.376238  
     391A      3.388355   392A      3.400848   393A      3.414178  
     394A      3.416099   395A      3.425043   396A      3.437247  
     397A      3.442172   398A      3.452630   399A      3.461568  
     400A      3.476565   401A      3.493720   402A      3.496126  
     403A      3.502264   404A      3.507158   405A      3.524290  
     406A      3.533941   407A      3.543645   408A      3.547671  
     409A      3.555923   410A      3.573002   411A      3.579150  
     412A      3.588322   413A      3.596051   414A      3.610536  
     415A      3.621006   416A      3.639900   417A      3.655898  
     418A      3.671275   419A      3.679400   420A      3.685269  
     421A      3.707326   422A      3.721541   423A      3.738812  
     424A      3.746552   425A      3.748384   426A      3.771586  
     427A      3.790835   428A      3.797929   429A      3.808279  
     430A      3.823497   431A      3.827681   432A      3.838600  
     433A      3.860943   434A      3.864805   435A      3.876687  
     436A      3.882962   437A      3.890014   438A      3.895004  
     439A      3.904291   440A      3.923370   441A      3.932631  
     442A      3.936204   443A      3.946253   444A      3.964243  
     445A      3.977687   446A      3.997445   447A      4.024138  
     448A      4.031462   449A      4.039946   450A      4.073010  
     451A      4.077046   452A      4.089759   453A      4.105288  
     454A      4.122201   455A      4.126604   456A      4.136670  
     457A      4.151221   458A      4.161994   459A      4.172830  
     460A      4.200956   461A      4.202951   462A      4.209697  
     463A      4.223275   464A      4.230697   465A      4.242550  
     466A      4.253653   467A      4.262888   468A      4.272437  
     469A      4.279175   470A      4.286253   471A      4.292482  
     472A      4.306568   473A      4.319014   474A      4.331329  
     475A      4.335200   476A      4.349602   477A      4.370218  
     478A      4.382554   479A      4.384801   480A      4.406307  
     481A      4.422950   482A      4.445152   483A      4.447287  
     484A      4.461358   485A      4.483083   486A      4.505340  
     487A      4.557544   488A      4.569822   489A      4.595938  
     490A      4.617068   491A      4.636691   492A      4.660362  
     493A      5.282942   494A      5.323158   495A      5.381921  
     496A      5.390286   497A      5.457396   498A      5.476183  
     499A      5.512821   500A      5.531965   501A      5.569765  
     502A      5.584984   503A      5.601775   504A      5.634199  
     505A      5.658742   506A      5.691160   507A      5.697441  
     508A      5.712003   509A      5.718032   510A      5.728962  
     511A      5.735579   512A      5.761529   513A      5.762105  
     514A      5.776914   515A      5.784553   516A      5.795485  
     517A      5.810214   518A      5.817480   519A      5.822046  
     520A      5.848857   521A      5.854178   522A      5.861736  
     523A      5.874602   524A      5.892816   525A      5.908006  
     526A      5.929131   527A      5.936712   528A      5.951219  
     529A      5.974664   530A      5.989085   531A      5.989897  
     532A      6.007522   533A      6.024835   534A      6.046790  
     535A      6.053636   536A      6.069053   537A      6.076584  
     538A      6.095332   539A      6.105813   540A      6.121000  
     541A      6.131180   542A      6.136955   543A      6.154304  
     544A      6.160368   545A      6.171456   546A      6.174246  
     547A      6.191002   548A      6.202550   549A      6.206121  
     550A      6.211949   551A      6.222908   552A      6.230756  
     553A      6.236293   554A      6.241277   555A      6.244483  
     556A      6.250138   557A      6.263118   558A      6.268608  
     559A      6.272513   560A      6.279414   561A      6.288041  
     562A      6.289618   563A      6.307331   564A      6.314701  
     565A      6.318782   566A      6.334561   567A      6.339539  
     568A      6.353812   569A      6.357308   570A      6.373388  
     571A      6.378078   572A      6.387083   573A      6.397201  
     574A      6.409874   575A      6.414979   576A      6.421737  
     577A      6.440183   578A      6.444394   579A      6.447159  
     580A      6.462178   581A      6.468443   582A      6.482619  
     583A      6.487340   584A      6.496720   585A      6.509926  
     586A      6.516393   587A      6.527896   588A      6.529650  
     589A      6.539435   590A      6.544972   591A      6.555439  
     592A      6.559439   593A      6.564494   594A      6.565913  
     595A      6.570869   596A      6.580866   597A      6.590835  
     598A      6.599171   599A      6.605580   600A      6.608741  
     601A      6.618177   602A      6.622915   603A      6.626448  
     604A      6.629274   605A      6.637519   606A      6.642746  
     607A      6.649268   608A      6.658907   609A      6.675672  
     610A      6.682575   611A      6.685703   612A      6.705458  
     613A      6.708438   614A      6.716209   615A      6.727443  
     616A      6.729746   617A      6.740169   618A      6.747429  
     619A      6.754891   620A      6.758836   621A      6.767350  
     622A      6.771022   623A      6.788130   624A      6.794662  
     625A      6.795724   626A      6.799256   627A      6.807220  
     628A      6.812130   629A      6.830997   630A      6.836378  
     631A      6.846253   632A      6.859045   633A      6.862903  
     634A      6.874035   635A      6.882096   636A      6.900941  
     637A      6.902874   638A      6.921677   639A      6.925786  
     640A      6.941984   641A      6.953215   642A      6.960645  
     643A      6.982300   644A      6.988835   645A      7.012622  
     646A      7.018029   647A      7.027682   648A      7.032570  
     649A      7.035397   650A      7.047879   651A      7.068566  
     652A      7.073740   653A      7.101275   654A      7.111382  
     655A      7.120375   656A      7.138269   657A      7.159003  
     658A      7.174619   659A      7.194489   660A      7.200790  
     661A      7.208579   662A      7.222751   663A      7.225796  
     664A      7.233232   665A      7.248623   666A      7.259268  
     667A      7.283058   668A      7.294199   669A      7.305352  
     670A      7.319216   671A      7.332078   672A      7.346640  
     673A      7.356473   674A      7.371762   675A      7.372654  
     676A      7.396380   677A      7.408682   678A      7.427365  
     679A      7.440005   680A      7.446692   681A      7.455864  
     682A      7.465576   683A      7.482144   684A      7.487878  
     685A      7.493438   686A      7.501840   687A      7.516414  
     688A      7.536458   689A      7.554057   690A      7.560979  
     691A      7.574679   692A      7.589991   693A      7.626926  
     694A      7.636772   695A      7.650382   696A      7.668608  
     697A      7.679198   698A      7.701946   699A      7.708901  
     700A      7.712206   701A      7.727233   702A      7.736286  
     703A      7.741659   704A      7.754597   705A      7.759824  
     706A      7.765198   707A      7.790996   708A      7.802995  
     709A      7.811319   710A      7.822851   711A      7.833987  
     712A      7.869591   713A      7.871210   714A      7.880639  
     715A      7.889341   716A      7.901663   717A      7.906767  
     718A      7.923477   719A      7.936647   720A      7.944875  
     721A      7.947743   722A      7.959638   723A      7.965945  
     724A      7.973728   725A      7.979979   726A      7.985305  
     727A      7.994856   728A      8.012506   729A      8.018059  
     730A      8.027665   731A      8.038839   732A      8.048226  
     733A      8.051929   734A      8.053085   735A      8.065734  
     736A      8.074137   737A      8.092772   738A      8.104101  
     739A      8.104746   740A      8.112332   741A      8.123906  
     742A      8.131123   743A      8.155393   744A      8.158617  
     745A      8.179321   746A      8.179661   747A      8.193190  
     748A      8.209411   749A      8.222903   750A      8.225204  
     751A      8.243955   752A      8.251015   753A      8.256243  
     754A      8.258430   755A      8.268380   756A      8.277115  
     757A      8.284137   758A      8.298482   759A      8.300998  
     760A      8.312903   761A      8.319957   762A      8.333629  
     763A      8.340160   764A      8.348918   765A      8.354939  
     766A      8.370270   767A      8.374075   768A      8.378598  
     769A      8.392795   770A      8.402153   771A      8.412814  
     772A      8.422634   773A      8.426588   774A      8.439414  
     775A      8.446123   776A      8.451639   777A      8.464003  
     778A      8.473103   779A      8.479357   780A      8.490371  
     781A      8.499290   782A      8.501776   783A      8.507989  
     784A      8.527781   785A      8.530554   786A      8.538176  
     787A      8.554779   788A      8.565340   789A      8.567112  
     790A      8.586604   791A      8.594912   792A      8.612974  
     793A      8.629434   794A      8.649967   795A      8.671785  
     796A      8.676093   797A      8.703530   798A      8.713096  
     799A      8.732077   800A      8.735229   801A      8.736952  
     802A      8.753840   803A      8.766582   804A      8.782652  
     805A      8.789121   806A      8.793702   807A      8.798661  
     808A      8.804470   809A      8.816918   810A      8.824477  
     811A      8.852466   812A      8.856040   813A      8.858762  
     814A      8.867077   815A      8.877454   816A      8.893830  
     817A      8.904128   818A      8.912922   819A      8.929569  
     820A      8.937666   821A      8.946022   822A      8.954146  
     823A      8.972603   824A      8.979725   825A      8.989973  
     826A      8.999778   827A      9.012531   828A      9.018837  
     829A      9.033875   830A      9.036879   831A      9.061180  
     832A      9.065125   833A      9.070876   834A      9.074164  
     835A      9.096012   836A      9.118454   837A      9.124218  
     838A      9.137800   839A      9.150868   840A      9.170952  
     841A      9.181615   842A      9.193638   843A      9.200026  
     844A      9.218690   845A      9.233882   846A      9.238729  
     847A      9.254119   848A      9.262439   849A      9.265117  
     850A      9.281709   851A      9.290958   852A      9.297592  
     853A      9.312061   854A      9.326727   855A      9.329950  
     856A      9.341280   857A      9.349154   858A      9.350891  
     859A      9.365003   860A      9.378759   861A      9.392834  
     862A      9.400887   863A      9.409297   864A      9.415072  
     865A      9.420428   866A      9.425406   867A      9.435588  
     868A      9.441951   869A      9.466939   870A      9.472661  
     871A      9.486684   872A      9.499569   873A      9.501235  
     874A      9.513974   875A      9.519421   876A      9.527576  
     877A      9.533330   878A      9.556307   879A      9.561418  
     880A      9.566324   881A      9.577944   882A      9.583074  
     883A      9.590279   884A      9.596328   885A      9.603949  
     886A      9.622118   887A      9.632079   888A      9.657916  
     889A      9.665864   890A      9.686017   891A      9.710653  
     892A      9.713281   893A      9.733143   894A      9.743325  
     895A      9.759950   896A      9.770993   897A      9.795466  
     898A      9.832534   899A      9.870992   900A      9.885513  
     901A     10.198904   902A     10.208459   903A     10.220836  
     904A     10.229883   905A     10.243314   906A     10.244473  
     907A     10.257426   908A     10.264241   909A     10.294020  
     910A     10.304415   911A     10.335996   912A     10.381930  
     913A     10.420983   914A     10.441728   915A     10.462377  
     916A     10.482000   917A     10.516182   918A     10.537979  
     919A     10.552672   920A     10.570543   921A     10.576999  
     922A     10.583320   923A     10.598493   924A     10.611878  
     925A     10.624004   926A     10.649209   927A     10.660725  
     928A     10.671656   929A     10.682341   930A     10.698924  
     931A     10.704037   932A     10.715759   933A     10.741206  
     934A     10.747023   935A     10.760972   936A     10.770217  
     937A     10.799440   938A     10.819116   939A     10.844638  
     940A     10.856562   941A     10.860009   942A     10.867379  
     943A     10.884374   944A     10.889248   945A     10.897940  
     946A     10.911784   947A     10.924806   948A     10.957570  
     949A     10.984291   950A     11.030331   951A     11.067278  
     952A     11.075255   953A     11.129939   954A     11.179967  
     955A     11.779849   956A     11.803370   957A     12.141276  
     958A     12.175325   959A     12.193404   960A     12.371562  
     961A     12.475456   962A     12.583178   963A     12.861689  
     964A     12.915194   965A     12.934595   966A     12.961513  
     967A     12.971949   968A     12.998952   969A     13.026673  
     970A     13.053084   971A     13.062287   972A     13.123165  
     973A     26.657730   974A     26.686104   975A     26.721285  
     976A     26.819452   977A     26.968061   978A     27.170885  
     979A     27.347124   980A     27.369350  

    Final Occupation by Irrep:
              A 
    DOCC [    33 ]

  Energy converged.

  @DF-RHF Final Energy:  -313.55993823937365

   => Energetics <=

    Nuclear Repulsion Energy =            395.4143627259961704
    One-Electron Energy =               -1206.0223915038768610
    Two-Electron Energy =                 497.0480905385072674
    DFT Exchange-Correlation Energy =       0.0000000000000000
    Empirical Dispersion Energy =           0.0000000000000000
    PCM Polarization Energy =               0.0000000000000000
    EFP Energy =                            0.0000000000000000
    Total Energy =                       -313.5599382393734231


  Saving occupied orbitals to File 180.

*** tstop() called on wr39 at Thu Sep 22 07:17:01 2016
Module time:
	user time   =     642.09 seconds =      10.70 minutes
	system time =       7.28 seconds =       0.12 minutes
	total time  =         63 seconds =       1.05 minutes
Total time:
	user time   =     842.89 seconds =      14.05 minutes
	system time =      11.95 seconds =       0.20 minutes
	total time  =         85 seconds =       1.42 minutes


Properties will be evaluated at   0.000000,   0.000000,   0.000000 Bohr

Properties computed using the SCF density matrix

  Nuclear Dipole Moment: (a.u.)
     X:    -0.9386      Y:    -1.6830      Z:     0.1436

  Electronic Dipole Moment: (a.u.)
     X:     0.9679      Y:     1.6982      Z:    -0.1485

  Dipole Moment: (a.u.)
     X:     0.0292      Y:     0.0152      Z:    -0.0049     Total:     0.0333

  Dipole Moment: (Debye)
     X:     0.0743      Y:     0.0386      Z:    -0.0124     Total:     0.0846


  //>>>>>>>>>>>>>>>>>>>>>>>>>>>>>>>>>>>//
  //               DFMP2               //
  //<<<<<<<<<<<<<<<<<<<<<<<<<<<<<<<<<<<//


*** tstart() called on wr39
*** at Thu Sep 22 07:17:01 2016


*** tstop() called on wr39 at Thu Sep 22 07:17:01 2016
Module time:
	user time   =       3.18 seconds =       0.05 minutes
	system time =       0.10 seconds =       0.00 minutes
	total time  =          0 seconds =       0.00 minutes
Total time:
	user time   =     846.95 seconds =      14.12 minutes
	system time =      12.08 seconds =       0.20 minutes
	total time  =         85 seconds =       1.42 minutes
	 --------------------------------------------------------
	                          DF-MP2                         
	      2nd-Order Density-Fitted Moller-Plesset Theory     
	              RMP2 Wavefunction,  12 Threads             
	                                                         
	        Rob Parrish, Justin Turney, Andy Simmonett,      
	           Ed Hohenstein, and C. David Sherrill          
	 --------------------------------------------------------

   => Auxiliary Basis Set <=

  Basis Set: 
    Number of shells: 510
    Number of basis function: 2046
    Number of Cartesian functions: 2708
    Spherical Harmonics?: true
    Max angular momentum: 5

	 --------------------------------------------------------
	                 NBF =   980, NAUX =  2046
	 --------------------------------------------------------
	   CLASS    FOCC     OCC    AOCC    AVIR     VIR    FVIR
	   PAIRS       8      33      25     947     947       0
	 --------------------------------------------------------

	-----------------------------------------------------------
	 ==================> DF-MP2 Energies <==================== 
	-----------------------------------------------------------
	 Reference Energy          =    -313.5599382393736505 [Eh]
	 Singles Energy            =      -0.0000000000033480 [Eh]
	 Same-Spin Energy          =      -0.3229932978419661 [Eh]
	 Opposite-Spin Energy      =      -1.1829619792964896 [Eh]
	 Correlation Energy        =      -1.5059552771418037 [Eh]
	 Total Energy              =    -315.0658935165154730 [Eh]
	-----------------------------------------------------------
	 ================> DF-SCS-MP2 Energies <================== 
	-----------------------------------------------------------
	 SCS Same-Spin Scale       =       0.3333333333333333 [-]
	 SCS Opposite-Spin Scale   =       1.2000000000000000 [-]
	 SCS Same-Spin Energy      =      -0.1076644326139887 [Eh]
	 SCS Opposite-Spin Energy  =      -1.4195543751557875 [Eh]
	 SCS Correlation Energy    =      -1.5272188077731241 [Eh]
	 SCS Total Energy          =    -315.0871570471467749 [Eh]
	-----------------------------------------------------------


  //>>>>>>>>>>>>>>>>>>>>>>>>>>>>>>>>>>>//
  //    CBS Results: custom function   //
  //<<<<<<<<<<<<<<<<<<<<<<<<<<<<<<<<<<<//


   ==> Helgaker 2-point SCF extrapolation for method: HF <==

   LO-zeta (3) Energy:               -313.540182141526
   HI-zeta (4) Energy:               -313.559938239373
   Alpha (exponent) Value:             1.630000000000
   Beta (coefficient) Value:           3.266683779851

   @Extrapolated HF/(T,Q):          -313.564752250327



   ==> Helgaker 2-point correlated extrapolation for method: MP2 <==

   LO-zeta (3) Energy:               -314.960062091272
   HI-zeta (4) Energy:               -315.065893516515
   Extrapolated Energy:              -315.143121853856

   @Extrapolated MP2/(T,Q):          -315.143121853856



   ==> Helgaker 2-point correlated extrapolation for method: HF <==

   LO-zeta (3) Energy:               -313.540182141526
   HI-zeta (4) Energy:               -313.559938239373
   Extrapolated Energy:              -313.574354851316

   @Extrapolated HF/(T,Q):           -313.574354851316


   ==> Components <==

  ---------------------------------------------------------------------------------------------------------
                          Method / Basis                      Rqd      Energy [Eh]   Variable
  ---------------------------------------------------------------------------------------------------------
                             mp2 / cc-pvtz                      *    -314.96006209   MP2 TOTAL ENERGY
                              hf / cc-pvtz                      *    -313.54018214   HF TOTAL ENERGY
                             mp2 / cc-pvqz                      *    -315.06589352   MP2 TOTAL ENERGY
                              hf / cc-pvqz                      *    -313.55993824   HF TOTAL ENERGY
  ---------------------------------------------------------------------------------------------------------

   ==> Stages <==

  ---------------------------------------------------------------------------------------------------------
      Stage               Method / Basis                       Wt      Energy [Eh]   Scheme
  ---------------------------------------------------------------------------------------------------------
        scf                   hf / cc-pv[tq]z                   1    -313.56475225   scf_xtpl_helgaker_2
       corl                  mp2 / cc-pv[tq]z                   1    -315.14312185   corl_xtpl_helgaker_2
       corl                   hf / cc-pv[tq]z                  -1    -313.57435485   corl_xtpl_helgaker_2
  ---------------------------------------------------------------------------------------------------------

   ==> CBS <==

  ---------------------------------------------------------------------------------------------------------
      Stage               Method / Basis                               Energy [Eh]   Scheme
  ---------------------------------------------------------------------------------------------------------
        scf                   hf / cc-pv[tq]z                        -313.56475225   scf_xtpl_helgaker_2
       corl                  mp2 / cc-pv[tq]z                          -1.56876700   corl_xtpl_helgaker_2
      total                  CBS                                     -315.13351925   
  ---------------------------------------------------------------------------------------------------------

*** Psi4 exiting successfully. Buy a developer a beer!
