    -----------------------------------------------------------------------
          Psi4: An Open-Source Ab Initio Electronic Structure Package
                              Psi4 1.0.0 Driver

                          Git: Rev {master} 6a9a71b dirty

    J. M. Turney, A. C. Simmonett, R. M. Parrish, E. G. Hohenstein,
    F. A. Evangelista, J. T. Fermann, B. J. Mintz, L. A. Burns, J. J. Wilke,
    M. L. Abrams, N. J. Russ, M. L. Leininger, C. L. Janssen, E. T. Seidl,
    W. D. Allen, H. F. Schaefer, R. A. King, E. F. Valeev, C. D. Sherrill,
    and T. D. Crawford, WIREs Comput. Mol. Sci. 2, 556-565 (2012)
    (doi: 10.1002/wcms.93)

                         Additional Contributions by
    A. E. DePrince, U. Bozkaya, A. Yu. Sokolov, D. G. A. Smith, R. Di Remigio,
    R. M. Richard, J. F. Gonthier, H. R. McAlexander, M. Saitow, and
    B. P. Pritchard
    -----------------------------------------------------------------------


    Psi4 started on: Thu Sep 22 07:15:35 2016

    Process ID:  45390
    PSI4DATADIR: /usr/local/hpc5/psi4conda/share/psi4
    Memory level set to 256.000 MB

  ==> Input File <==

--------------------------------------------------------------------------
memory 60 Gb

molecule molecule_10_psi {
0 1
    C           -2.262081522688     0.126249661852    -1.545983157913
    H           -2.618830167874     1.154690245091    -1.625450003523
    H           -2.778016067888    -0.466969153695    -2.300597931460
    H           -1.200767735106     0.123856672532    -1.794807361095
    C            2.264731086738    -0.127398276978    -1.541999158433
    H            1.203845912570    -0.125190620262    -1.792647333758
    H            2.621614783636    -1.155897916295    -1.620088067367
    H            2.781961543272     0.465259158760    -2.296168250637
    C           -2.509590357713    -0.425345257941    -0.146414760645
    H           -2.112649367002    -1.440361069196    -0.076674178366
    H           -3.585347025333    -0.506598548444     0.024352453220
    C            2.509837389716     0.425238773000    -0.142418938051
    H            3.585299520365     0.506620877087     0.030133227413
    H            2.112776894287     1.440305738645    -0.074115087164
    C           -1.905177058345     0.443493927266     0.956279526941
    H           -2.122483375905    -0.010509107293     1.927410318471
    H           -2.402527772244     1.417927622804     0.948663613304
    C           -0.395908567445     0.652366537806     0.837003579910
    H           -0.057567285491     1.271562277132     1.673722503197
    H           -0.174531220514     1.220849909701    -0.069458069795
    C            0.394471300295    -0.651744590227     0.838173460652
    H            0.054693595892    -1.270309798020     1.674776714675
    H            0.174648613179    -1.220910834146    -0.068238228742
    C            1.903533595408    -0.442781073708     0.959882892535
    H            2.119174458978     0.011945017811     1.931046855500
    H            2.400897147575    -1.417219459196     0.953844917924
}

set globals {
  reference rhf
  freeze_core true
}
energy(cbs, corl_wfn='mp2', corl_basis='cc-pv[tq]z', scf_basis='cc-pv[tq]z', corl_scheme=corl_xtpl_helgaker_2, scf_scheme=scf_xtpl_helgaker_2)
--------------------------------------------------------------------------
/usr/local/hpc5/psi4conda/lib/python2.7/site-packages/v2rdm_casscf/v2rdm_casscf.so loaded.

  Memory set to  60.000 GiB by Python script.

  //>>>>>>>>>>>>>>>>>>>>>>>>>>>>>>>>>>>//
  //     CBS Setup: custom function    //
  //<<<<<<<<<<<<<<<<<<<<<<<<<<<<<<<<<<<//

    Naive listing of computations required.
             hf / cc-pvtz                  for  HF TOTAL ENERGY
             hf / cc-pvqz                  for  HF TOTAL ENERGY
            mp2 / cc-pvtz                  for  MP2 TOTAL ENERGY
            mp2 / cc-pvqz                  for  MP2 TOTAL ENERGY
             hf / cc-pvtz                  for  HF TOTAL ENERGY
             hf / cc-pvqz                  for  HF TOTAL ENERGY

    Enlightened listing of computations required.
            mp2 / cc-pvtz                  for  MP2 TOTAL ENERGY
            mp2 / cc-pvqz                  for  MP2 TOTAL ENERGY

    Full listing of computations to be obtained (required and bonus).
            mp2 / cc-pvtz                  for  MP2 TOTAL ENERGY
             hf / cc-pvtz                  for  HF TOTAL ENERGY
            mp2 / cc-pvqz                  for  MP2 TOTAL ENERGY
             hf / cc-pvqz                  for  HF TOTAL ENERGY

  //>>>>>>>>>>>>>>>>>>>>>>>>>>>>>>>>>>>//
  //   CBS Computation: MP2 / CC-PVTZ  //
  //<<<<<<<<<<<<<<<<<<<<<<<<<<<<<<<<<<<//

    SCF Algorithm Type (re)set to DF.

*** tstart() called on wr37
*** at Thu Sep 22 07:15:36 2016


         ---------------------------------------------------------
                                   SCF
            by Justin Turney, Rob Parrish, and Andy Simmonett
                              RHF Reference
                       12 Threads,  60000 MiB Core
         ---------------------------------------------------------

  ==> Geometry <==

    Molecular point group: c1
    Full point group: C1

    Geometry (in Angstrom), charge = 0, multiplicity = 1:

       Center              X                  Y                   Z               Mass       
    ------------   -----------------  -----------------  -----------------  -----------------
           C         -2.262081522688     0.126249661852    -1.545983157913    12.000000000000
           H         -2.618830167874     1.154690245091    -1.625450003523     1.007825032070
           H         -2.778016067888    -0.466969153695    -2.300597931460     1.007825032070
           H         -1.200767735106     0.123856672532    -1.794807361095     1.007825032070
           C          2.264731086738    -0.127398276978    -1.541999158433    12.000000000000
           H          1.203845912570    -0.125190620262    -1.792647333758     1.007825032070
           H          2.621614783636    -1.155897916295    -1.620088067367     1.007825032070
           H          2.781961543272     0.465259158760    -2.296168250637     1.007825032070
           C         -2.509590357713    -0.425345257941    -0.146414760645    12.000000000000
           H         -2.112649367002    -1.440361069196    -0.076674178366     1.007825032070
           H         -3.585347025333    -0.506598548444     0.024352453220     1.007825032070
           C          2.509837389716     0.425238773000    -0.142418938051    12.000000000000
           H          3.585299520365     0.506620877087     0.030133227413     1.007825032070
           H          2.112776894287     1.440305738645    -0.074115087164     1.007825032070
           C         -1.905177058345     0.443493927266     0.956279526941    12.000000000000
           H         -2.122483375905    -0.010509107293     1.927410318471     1.007825032070
           H         -2.402527772244     1.417927622804     0.948663613304     1.007825032070
           C         -0.395908567445     0.652366537806     0.837003579910    12.000000000000
           H         -0.057567285491     1.271562277132     1.673722503197     1.007825032070
           H         -0.174531220514     1.220849909701    -0.069458069795     1.007825032070
           C          0.394471300295    -0.651744590227     0.838173460652    12.000000000000
           H          0.054693595892    -1.270309798020     1.674776714675     1.007825032070
           H          0.174648613179    -1.220910834146    -0.068238228742     1.007825032070
           C          1.903533595408    -0.442781073708     0.959882892535    12.000000000000
           H          2.119174458978     0.011945017811     1.931046855500     1.007825032070
           H          2.400897147575    -1.417219459196     0.953844917924     1.007825032070

  Running in c1 symmetry.

  Rotational constants: A =      0.09822  B =      0.03435  C =      0.02871 [cm^-1]
  Rotational constants: A =   2944.48419  B =   1029.87726  C =    860.76914 [MHz]
  Nuclear repulsion =  404.723563740604106

  Charge       = 0
  Multiplicity = 1
  Electrons    = 66
  Nalpha       = 33
  Nbeta        = 33

  ==> Algorithm <==

  SCF Algorithm Type is DF.
  DIIS enabled.
  MOM disabled.
  Fractional occupation disabled.
  Guess Type is SAD.
  Energy threshold   = 1.00e-08
  Density threshold  = 1.00e-08
  Integral threshold = 0.00e+00

  ==> Primary Basis <==

  Basis Set: CC-PVTZ
    Number of shells: 188
    Number of basis function: 492
    Number of Cartesian functions: 550
    Spherical Harmonics?: true
    Max angular momentum: 3

  ==> Pre-Iterations <==

   -------------------------------------------------------
    Irrep   Nso     Nmo     Nalpha   Nbeta   Ndocc  Nsocc
   -------------------------------------------------------
     A        492     492       0       0       0       0
   -------------------------------------------------------
    Total     492     492      33      33      33       0
   -------------------------------------------------------

  ==> Integral Setup <==

  ==> DFJK: Density-Fitted J/K Matrices <==

    J tasked:                  Yes
    K tasked:                  Yes
    wK tasked:                  No
    OpenMP threads:             12
    Integrals threads:          12
    Memory (MB):             42915
    Algorithm:                Core
    Integral Cache:           NONE
    Schwarz Cutoff:          1E-12
    Fitting Condition:       1E-12

   => Auxiliary Basis Set <=

  Basis Set: 
    Number of shells: 380
    Number of basis function: 1172
    Number of Cartesian functions: 1398
    Spherical Harmonics?: true
    Max angular momentum: 4

  Minimum eigenvalue in the overlap matrix is 2.6981087889E-04.
  Using Symmetric Orthogonalization.
  SCF Guess: Superposition of Atomic Densities via on-the-fly atomic UHF.

  ==> Iterations <==

                           Total Energy        Delta E     RMS |[F,P]|

   @DF-RHF iter   0:  -317.02893774316038   -3.17029e+02   1.10928e-02 
   @DF-RHF iter   1:  -313.28694660576917    3.74199e+00   1.18356e-03 
   @DF-RHF iter   2:  -313.50339706667609   -2.16450e-01   4.54669e-04 DIIS
   @DF-RHF iter   3:  -313.53258878494290   -2.91917e-02   1.56188e-04 DIIS
   @DF-RHF iter   4:  -313.53762630632292   -5.03752e-03   2.53803e-05 DIIS
   @DF-RHF iter   5:  -313.53779044105528   -1.64135e-04   6.50309e-06 DIIS
   @DF-RHF iter   6:  -313.53780172177409   -1.12807e-05   1.57378e-06 DIIS
   @DF-RHF iter   7:  -313.53780243442515   -7.12651e-07   4.19869e-07 DIIS
   @DF-RHF iter   8:  -313.53780247859976   -4.41746e-08   1.26289e-07 DIIS
   @DF-RHF iter   9:  -313.53780248291940   -4.31965e-09   3.17082e-08 DIIS
   @DF-RHF iter  10:  -313.53780248322045   -3.01043e-10   8.63433e-09 DIIS

  ==> Post-Iterations <==

    Orbital Energies (a.u.)
    -----------------------

    Doubly Occupied:                                                      

       1A    -11.212191     2A    -11.212191     3A    -11.210732  
       4A    -11.210706     5A    -11.209536     6A    -11.208936  
       7A    -11.207281     8A    -11.207280     9A     -1.096193  
      10A     -1.060357    11A     -1.003616    12A     -0.947598  
      13A     -0.888048    14A     -0.843033    15A     -0.782038  
      16A     -0.743682    17A     -0.648293    18A     -0.635045  
      19A     -0.613219    20A     -0.604726    21A     -0.568788  
      22A     -0.550106    23A     -0.543055    24A     -0.537834  
      25A     -0.522836    26A     -0.501272    27A     -0.495320  
      28A     -0.471687    29A     -0.462719    30A     -0.459178  
      31A     -0.444457    32A     -0.438411    33A     -0.435848  

    Virtual:                                                              

      34A      0.138205    35A      0.153235    36A      0.156948  
      37A      0.157681    38A      0.188960    39A      0.190907  
      40A      0.191447    41A      0.211279    42A      0.215847  
      43A      0.222184    44A      0.231156    45A      0.239727  
      46A      0.248284    47A      0.255568    48A      0.263733  
      49A      0.271427    50A      0.283338    51A      0.321305  
      52A      0.321919    53A      0.343756    54A      0.346027  
      55A      0.358810    56A      0.371270    57A      0.387141  
      58A      0.389440    59A      0.392053    60A      0.418127  
      61A      0.427806    62A      0.428170    63A      0.440603  
      64A      0.444446    65A      0.457598    66A      0.463901  
      67A      0.478080    68A      0.487383    69A      0.495979  
      70A      0.550430    71A      0.552655    72A      0.580474  
      73A      0.587724    74A      0.588556    75A      0.597859  
      76A      0.606269    77A      0.615366    78A      0.615606  
      79A      0.621110    80A      0.635537    81A      0.645436  
      82A      0.653309    83A      0.657309    84A      0.665879  
      85A      0.674353    86A      0.675227    87A      0.678497  
      88A      0.678648    89A      0.685232    90A      0.691105  
      91A      0.698504    92A      0.700704    93A      0.712846  
      94A      0.713569    95A      0.732052    96A      0.733809  
      97A      0.742487    98A      0.747471    99A      0.764295  
     100A      0.785986   101A      0.788548   102A      0.808704  
     103A      0.858561   104A      0.868052   105A      0.877271  
     106A      0.886138   107A      0.932222   108A      0.941036  
     109A      0.961599   110A      0.963352   111A      0.975967  
     112A      0.986675   113A      0.997651   114A      1.027890  
     115A      1.047745   116A      1.056598   117A      1.060321  
     118A      1.080522   119A      1.100909   120A      1.102092  
     121A      1.119970   122A      1.122209   123A      1.141648  
     124A      1.144851   125A      1.182663   126A      1.198041  
     127A      1.212400   128A      1.219586   129A      1.226044  
     130A      1.232793   131A      1.246022   132A      1.246412  
     133A      1.256738   134A      1.282926   135A      1.283047  
     136A      1.293761   137A      1.304474   138A      1.315847  
     139A      1.318440   140A      1.326027   141A      1.336555  
     142A      1.339752   143A      1.357689   144A      1.370359  
     145A      1.375411   146A      1.379010   147A      1.400484  
     148A      1.400693   149A      1.401064   150A      1.414691  
     151A      1.420434   152A      1.429071   153A      1.440581  
     154A      1.445730   155A      1.449402   156A      1.459775  
     157A      1.472203   158A      1.480761   159A      1.492825  
     160A      1.496468   161A      1.524178   162A      1.525011  
     163A      1.533620   164A      1.543050   165A      1.558099  
     166A      1.570023   167A      1.586361   168A      1.588920  
     169A      1.594478   170A      1.598141   171A      1.611927  
     172A      1.620814   173A      1.638974   174A      1.646660  
     175A      1.657653   176A      1.664605   177A      1.675350  
     178A      1.685183   179A      1.702028   180A      1.703655  
     181A      1.736482   182A      1.737645   183A      1.742058  
     184A      1.750307   185A      1.768310   186A      1.768765  
     187A      1.801576   188A      1.819190   189A      1.838966  
     190A      1.859997   191A      1.861758   192A      1.886428  
     193A      1.886910   194A      1.901310   195A      1.922698  
     196A      1.959643   197A      1.979325   198A      2.011481  
     199A      2.031797   200A      2.032926   201A      2.119548  
     202A      2.192974   203A      2.543793   204A      2.544900  
     205A      2.551735   206A      2.620209   207A      2.641784  
     208A      2.658591   209A      2.662901   210A      2.690702  
     211A      2.697786   212A      2.708947   213A      2.722630  
     214A      2.740558   215A      2.758642   216A      2.780711  
     217A      2.781678   218A      2.790147   219A      2.814284  
     220A      2.829590   221A      2.831762   222A      2.853893  
     223A      2.881429   224A      2.889546   225A      2.899431  
     226A      2.905663   227A      2.922362   228A      2.923953  
     229A      2.947529   230A      2.958169   231A      2.958982  
     232A      2.977323   233A      2.981984   234A      2.992027  
     235A      2.994110   236A      3.013695   237A      3.015292  
     238A      3.027539   239A      3.046656   240A      3.047982  
     241A      3.064659   242A      3.094840   243A      3.107498  
     244A      3.111229   245A      3.125306   246A      3.128005  
     247A      3.138618   248A      3.153134   249A      3.172091  
     250A      3.187946   251A      3.196557   252A      3.210623  
     253A      3.216292   254A      3.233244   255A      3.251072  
     256A      3.259429   257A      3.267214   258A      3.278994  
     259A      3.308883   260A      3.309140   261A      3.314608  
     262A      3.333293   263A      3.346723   264A      3.354723  
     265A      3.373390   266A      3.385369   267A      3.386938  
     268A      3.402958   269A      3.404022   270A      3.412816  
     271A      3.422505   272A      3.425663   273A      3.453038  
     274A      3.454909   275A      3.459460   276A      3.475129  
     277A      3.486168   278A      3.492334   279A      3.494712  
     280A      3.502123   281A      3.504794   282A      3.510352  
     283A      3.510952   284A      3.518453   285A      3.530514  
     286A      3.534575   287A      3.552024   288A      3.559619  
     289A      3.574567   290A      3.576124   291A      3.593411  
     292A      3.615980   293A      3.640247   294A      3.640955  
     295A      3.649674   296A      3.666377   297A      3.672053  
     298A      3.706309   299A      3.709463   300A      3.715912  
     301A      3.728525   302A      3.729138   303A      3.745929  
     304A      3.766433   305A      3.771205   306A      3.773514  
     307A      3.781757   308A      3.797463   309A      3.816212  
     310A      3.830522   311A      3.837000   312A      3.847988  
     313A      3.859690   314A      3.865419   315A      3.883319  
     316A      3.888116   317A      3.904077   318A      3.924822  
     319A      3.933014   320A      3.940358   321A      3.962875  
     322A      3.978704   323A      3.995910   324A      3.997619  
     325A      4.031822   326A      4.045808   327A      4.055948  
     328A      4.056907   329A      4.066506   330A      4.071581  
     331A      4.087018   332A      4.095513   333A      4.118015  
     334A      4.131288   335A      4.134887   336A      4.141681  
     337A      4.142170   338A      4.150433   339A      4.152684  
     340A      4.159312   341A      4.178844   342A      4.182944  
     343A      4.204466   344A      4.217060   345A      4.217514  
     346A      4.220639   347A      4.242644   348A      4.247117  
     349A      4.256086   350A      4.269679   351A      4.274670  
     352A      4.283515   353A      4.296392   354A      4.305969  
     355A      4.317429   356A      4.354675   357A      4.366281  
     358A      4.371844   359A      4.373825   360A      4.374313  
     361A      4.395904   362A      4.402756   363A      4.406490  
     364A      4.425023   365A      4.425254   366A      4.434326  
     367A      4.449973   368A      4.453801   369A      4.464348  
     370A      4.469131   371A      4.487209   372A      4.489890  
     373A      4.494438   374A      4.517199   375A      4.522151  
     376A      4.543945   377A      4.559238   378A      4.564719  
     379A      4.572795   380A      4.598665   381A      4.601569  
     382A      4.605710   383A      4.612480   384A      4.634464  
     385A      4.654381   386A      4.657268   387A      4.668456  
     388A      4.682874   389A      4.684537   390A      4.694058  
     391A      4.726487   392A      4.735926   393A      4.751584  
     394A      4.778404   395A      4.778620   396A      4.787080  
     397A      4.787324   398A      4.805057   399A      4.817105  
     400A      4.817587   401A      4.846096   402A      4.860444  
     403A      4.866899   404A      4.914198   405A      4.942834  
     406A      4.990695   407A      5.011825   408A      5.013347  
     409A      5.039032   410A      5.065353   411A      5.071371  
     412A      5.082029   413A      5.093170   414A      5.130534  
     415A      5.139509   416A      5.141054   417A      5.151178  
     418A      5.189043   419A      5.218861   420A      5.220220  
     421A      5.240074   422A      5.240745   423A      5.245490  
     424A      5.271388   425A      5.274796   426A      5.278078  
     427A      5.319639   428A      5.331475   429A      5.336556  
     430A      5.344583   431A      5.386180   432A      5.392812  
     433A      5.395279   434A      5.401908   435A      5.432984  
     436A      5.438497   437A      5.469706   438A      5.493095  
     439A      5.496815   440A      5.513308   441A      5.558264  
     442A      5.573026   443A      5.601157   444A      5.619331  
     445A      5.625763   446A      5.654768   447A      5.666597  
     448A      5.681854   449A      5.705554   450A      5.718897  
     451A      5.734986   452A      5.738206   453A      5.749968  
     454A      5.768052   455A      5.770086   456A      5.803054  
     457A      5.809817   458A      5.831684   459A      5.832794  
     460A      5.834074   461A      5.867200   462A      5.872561  
     463A      5.884296   464A      5.904652   465A      5.907120  
     466A      5.929700   467A      5.949797   468A      5.993039  
     469A      6.019904   470A      6.033665   471A      6.091333  
     472A      6.111770   473A      6.159028   474A      6.166794  
     475A      6.321571   476A      6.342873   477A      6.348785  
     478A      6.373347   479A      6.429866   480A      6.442334  
     481A      6.466780   482A      6.474395   483A      6.515384  
     484A      6.571217   485A     13.190465   486A     13.237257  
     487A     13.288639   488A     13.641440   489A     13.727839  
     490A     13.924538   491A     14.116490   492A     14.464253  

    Final Occupation by Irrep:
              A 
    DOCC [    33 ]

  Energy converged.

  @DF-RHF Final Energy:  -313.53780248322045

   => Energetics <=

    Nuclear Repulsion Energy =            404.7235637406041064
    One-Electron Energy =               -1224.5702942629645804
    Two-Electron Energy =                 506.3089280391400280
    DFT Exchange-Correlation Energy =       0.0000000000000000
    Empirical Dispersion Energy =           0.0000000000000000
    PCM Polarization Energy =               0.0000000000000000
    EFP Energy =                            0.0000000000000000
    Total Energy =                       -313.5378024832205028


  Saving occupied orbitals to File 180.

*** tstop() called on wr37 at Thu Sep 22 07:15:49 2016
Module time:
	user time   =     129.33 seconds =       2.16 minutes
	system time =       2.45 seconds =       0.04 minutes
	total time  =         13 seconds =       0.22 minutes
Total time:
	user time   =     129.33 seconds =       2.16 minutes
	system time =       2.45 seconds =       0.04 minutes
	total time  =         13 seconds =       0.22 minutes


Properties will be evaluated at   0.000000,   0.000000,   0.000000 Bohr

Properties computed using the SCF density matrix

  Nuclear Dipole Moment: (a.u.)
     X:     0.0021      Y:    -0.0009      Z:    -2.3946

  Electronic Dipole Moment: (a.u.)
     X:    -0.0021      Y:     0.0009      Z:     2.4327

  Dipole Moment: (a.u.)
     X:    -0.0000      Y:     0.0000      Z:     0.0382     Total:     0.0382

  Dipole Moment: (Debye)
     X:    -0.0001      Y:     0.0000      Z:     0.0970     Total:     0.0970


  //>>>>>>>>>>>>>>>>>>>>>>>>>>>>>>>>>>>//
  //               DFMP2               //
  //<<<<<<<<<<<<<<<<<<<<<<<<<<<<<<<<<<<//


*** tstart() called on wr37
*** at Thu Sep 22 07:15:49 2016


*** tstop() called on wr37 at Thu Sep 22 07:15:49 2016
Module time:
	user time   =       2.60 seconds =       0.04 minutes
	system time =       0.06 seconds =       0.00 minutes
	total time  =          0 seconds =       0.00 minutes
Total time:
	user time   =     132.33 seconds =       2.21 minutes
	system time =       2.51 seconds =       0.04 minutes
	total time  =         13 seconds =       0.22 minutes
	 --------------------------------------------------------
	                          DF-MP2                         
	      2nd-Order Density-Fitted Moller-Plesset Theory     
	              RMP2 Wavefunction,  12 Threads             
	                                                         
	        Rob Parrish, Justin Turney, Andy Simmonett,      
	           Ed Hohenstein, and C. David Sherrill          
	 --------------------------------------------------------

   => Auxiliary Basis Set <=

  Basis Set: 
    Number of shells: 364
    Number of basis function: 1188
    Number of Cartesian functions: 1438
    Spherical Harmonics?: true
    Max angular momentum: 4

	 --------------------------------------------------------
	                 NBF =   492, NAUX =  1188
	 --------------------------------------------------------
	   CLASS    FOCC     OCC    AOCC    AVIR     VIR    FVIR
	   PAIRS       8      33      25     459     459       0
	 --------------------------------------------------------

	-----------------------------------------------------------
	 ==================> DF-MP2 Energies <==================== 
	-----------------------------------------------------------
	 Reference Energy          =    -313.5378024832204460 [Eh]
	 Singles Energy            =      -0.0000000000016331 [Eh]
	 Same-Spin Energy          =      -0.3137794636018686 [Eh]
	 Opposite-Spin Energy      =      -1.1083673380507397 [Eh]
	 Correlation Energy        =      -1.4221468016542416 [Eh]
	 Total Energy              =    -314.9599492848747104 [Eh]
	-----------------------------------------------------------
	 ================> DF-SCS-MP2 Energies <================== 
	-----------------------------------------------------------
	 SCS Same-Spin Scale       =       0.3333333333333333 [-]
	 SCS Opposite-Spin Scale   =       1.2000000000000000 [-]
	 SCS Same-Spin Energy      =      -0.1045931545339562 [Eh]
	 SCS Opposite-Spin Energy  =      -1.3300408056608877 [Eh]
	 SCS Correlation Energy    =      -1.4346339601964770 [Eh]
	 SCS Total Energy          =    -314.9724364434169388 [Eh]
	-----------------------------------------------------------


  //>>>>>>>>>>>>>>>>>>>>>>>>>>>>>>>>>>>//
  //   CBS Computation: MP2 / CC-PVQZ  //
  //<<<<<<<<<<<<<<<<<<<<<<<<<<<<<<<<<<<//

    SCF Algorithm Type (re)set to DF.

*** tstart() called on wr37
*** at Thu Sep 22 07:15:58 2016


         ---------------------------------------------------------
                                   SCF
            by Justin Turney, Rob Parrish, and Andy Simmonett
                              RHF Reference
                       12 Threads,  60000 MiB Core
         ---------------------------------------------------------

  ==> Geometry <==

    Molecular point group: c1
    Full point group: C1

    Geometry (in Angstrom), charge = 0, multiplicity = 1:

       Center              X                  Y                   Z               Mass       
    ------------   -----------------  -----------------  -----------------  -----------------
           C         -2.262081522688     0.126249661852    -1.545983157913    12.000000000000
           H         -2.618830167874     1.154690245091    -1.625450003523     1.007825032070
           H         -2.778016067888    -0.466969153695    -2.300597931460     1.007825032070
           H         -1.200767735106     0.123856672532    -1.794807361095     1.007825032070
           C          2.264731086738    -0.127398276978    -1.541999158433    12.000000000000
           H          1.203845912570    -0.125190620262    -1.792647333758     1.007825032070
           H          2.621614783636    -1.155897916295    -1.620088067367     1.007825032070
           H          2.781961543272     0.465259158760    -2.296168250637     1.007825032070
           C         -2.509590357713    -0.425345257941    -0.146414760645    12.000000000000
           H         -2.112649367002    -1.440361069196    -0.076674178366     1.007825032070
           H         -3.585347025333    -0.506598548444     0.024352453220     1.007825032070
           C          2.509837389716     0.425238773000    -0.142418938051    12.000000000000
           H          3.585299520365     0.506620877087     0.030133227413     1.007825032070
           H          2.112776894287     1.440305738645    -0.074115087164     1.007825032070
           C         -1.905177058345     0.443493927266     0.956279526941    12.000000000000
           H         -2.122483375905    -0.010509107293     1.927410318471     1.007825032070
           H         -2.402527772244     1.417927622804     0.948663613304     1.007825032070
           C         -0.395908567445     0.652366537806     0.837003579910    12.000000000000
           H         -0.057567285491     1.271562277132     1.673722503197     1.007825032070
           H         -0.174531220514     1.220849909701    -0.069458069795     1.007825032070
           C          0.394471300295    -0.651744590227     0.838173460652    12.000000000000
           H          0.054693595892    -1.270309798020     1.674776714675     1.007825032070
           H          0.174648613179    -1.220910834146    -0.068238228742     1.007825032070
           C          1.903533595408    -0.442781073708     0.959882892535    12.000000000000
           H          2.119174458978     0.011945017811     1.931046855500     1.007825032070
           H          2.400897147575    -1.417219459196     0.953844917924     1.007825032070

  Running in c1 symmetry.

  Rotational constants: A =      0.09822  B =      0.03435  C =      0.02871 [cm^-1]
  Rotational constants: A =   2944.48419  B =   1029.87726  C =    860.76914 [MHz]
  Nuclear repulsion =  404.723563740604106

  Charge       = 0
  Multiplicity = 1
  Electrons    = 66
  Nalpha       = 33
  Nbeta        = 33

  ==> Algorithm <==

  SCF Algorithm Type is DF.
  DIIS enabled.
  MOM disabled.
  Fractional occupation disabled.
  Guess Type is SAD.
  Energy threshold   = 1.00e-08
  Density threshold  = 1.00e-08
  Integral threshold = 0.00e+00

  ==> Primary Basis <==

  Basis Set: CC-PVQZ
    Number of shells: 300
    Number of basis function: 980
    Number of Cartesian functions: 1190
    Spherical Harmonics?: true
    Max angular momentum: 4

  ==> Pre-Iterations <==

   -------------------------------------------------------
    Irrep   Nso     Nmo     Nalpha   Nbeta   Ndocc  Nsocc
   -------------------------------------------------------
     A        980     980       0       0       0       0
   -------------------------------------------------------
    Total     980     980      33      33      33       0
   -------------------------------------------------------

  ==> Integral Setup <==

  ==> DFJK: Density-Fitted J/K Matrices <==

    J tasked:                  Yes
    K tasked:                  Yes
    wK tasked:                  No
    OpenMP threads:             12
    Integrals threads:          12
    Memory (MB):             42915
    Algorithm:                Core
    Integral Cache:           NONE
    Schwarz Cutoff:          1E-12
    Fitting Condition:       1E-12

   => Auxiliary Basis Set <=

  Basis Set: 
    Number of shells: 458
    Number of basis function: 1766
    Number of Cartesian functions: 2324
    Spherical Harmonics?: true
    Max angular momentum: 5

  Minimum eigenvalue in the overlap matrix is 4.2213483074E-05.
  Using Symmetric Orthogonalization.
  SCF Guess: Superposition of Atomic Densities via on-the-fly atomic UHF.

  ==> Iterations <==

                           Total Energy        Delta E     RMS |[F,P]|

   @DF-RHF iter   0:  -317.01834311559827   -3.17018e+02   5.65154e-03 
   @DF-RHF iter   1:  -313.32159272611472    3.69675e+00   5.49279e-04 
   @DF-RHF iter   2:  -313.52899592894647   -2.07403e-01   1.88460e-04 DIIS
   @DF-RHF iter   3:  -313.55273516173025   -2.37392e-02   7.96475e-05 DIIS
   @DF-RHF iter   4:  -313.55734794828919   -4.61279e-03   1.33975e-05 DIIS
   @DF-RHF iter   5:  -313.55752915492911   -1.81207e-04   3.37173e-06 DIIS
   @DF-RHF iter   6:  -313.55754024913716   -1.10942e-05   9.82577e-07 DIIS
   @DF-RHF iter   7:  -313.55754108291029   -8.33773e-07   2.31116e-07 DIIS
   @DF-RHF iter   8:  -313.55754113408142   -5.11711e-08   6.52991e-08 DIIS
   @DF-RHF iter   9:  -313.55754113835218   -4.27076e-09   1.72543e-08 DIIS
   @DF-RHF iter  10:  -313.55754113868164   -3.29464e-10   5.10699e-09 DIIS

  ==> Post-Iterations <==

    Orbital Energies (a.u.)
    -----------------------

    Doubly Occupied:                                                      

       1A    -11.211066     2A    -11.211066     3A    -11.209623  
       4A    -11.209598     5A    -11.208389     6A    -11.207785  
       7A    -11.206278     8A    -11.206278     9A     -1.095879  
      10A     -1.060067    11A     -1.003342    12A     -0.947376  
      13A     -0.887865    14A     -0.842901    15A     -0.781940  
      16A     -0.743599    17A     -0.648331    18A     -0.635100  
      19A     -0.613284    20A     -0.604799    21A     -0.568891  
      22A     -0.550176    23A     -0.543159    24A     -0.537955  
      25A     -0.522955    26A     -0.501380    27A     -0.495455  
      28A     -0.471853    29A     -0.462858    30A     -0.459291  
      31A     -0.444615    32A     -0.438507    33A     -0.435987  

    Virtual:                                                              

      34A      0.110821    35A      0.124757    36A      0.126144  
      37A      0.127944    38A      0.155795    39A      0.158107  
      40A      0.158872    41A      0.177217    42A      0.182762  
      43A      0.190893    44A      0.192376    45A      0.208061  
      46A      0.218333    47A      0.222325    48A      0.227208  
      49A      0.234681    50A      0.247711    51A      0.266134  
      52A      0.277561    53A      0.283934    54A      0.294643  
      55A      0.300785    56A      0.306915    57A      0.313340  
      58A      0.328700    59A      0.332790    60A      0.337170  
      61A      0.354151    62A      0.355725    63A      0.367921  
      64A      0.382965    65A      0.387419    66A      0.391591  
      67A      0.425951    68A      0.426524    69A      0.433312  
      70A      0.447151    71A      0.447960    72A      0.452354  
      73A      0.453235    74A      0.461509    75A      0.477021  
      76A      0.480795    77A      0.490932    78A      0.497917  
      79A      0.501456    80A      0.516575    81A      0.518265  
      82A      0.531629    83A      0.535580    84A      0.537154  
      85A      0.544182    86A      0.550323    87A      0.554232  
      88A      0.555297    89A      0.562453    90A      0.568226  
      91A      0.570710    92A      0.578554    93A      0.581645  
      94A      0.593319    95A      0.604344    96A      0.610380  
      97A      0.612068    98A      0.615435    99A      0.642132  
     100A      0.650718   101A      0.678451   102A      0.681686  
     103A      0.737780   104A      0.743183   105A      0.748618  
     106A      0.753625   107A      0.765755   108A      0.774842  
     109A      0.801253   110A      0.807013   111A      0.813303  
     112A      0.829699   113A      0.829793   114A      0.839402  
     115A      0.845604   116A      0.851876   117A      0.856023  
     118A      0.861371   119A      0.872735   120A      0.873213  
     121A      0.879186   122A      0.883248   123A      0.890527  
     124A      0.891264   125A      0.910547   126A      0.920707  
     127A      0.932856   128A      0.953352   129A      0.955432  
     130A      0.959643   131A      0.960724   132A      0.972738  
     133A      0.982031   134A      0.996599   135A      1.005800  
     136A      1.015303   137A      1.024649   138A      1.025719  
     139A      1.031111   140A      1.041846   141A      1.045399  
     142A      1.050874   143A      1.053382   144A      1.053437  
     145A      1.056330   146A      1.068565   147A      1.080666  
     148A      1.090402   149A      1.092716   150A      1.099925  
     151A      1.108543   152A      1.109902   153A      1.119125  
     154A      1.120834   155A      1.126642   156A      1.140934  
     157A      1.146499   158A      1.150125   159A      1.151137  
     160A      1.165918   161A      1.169107   162A      1.169379  
     163A      1.191262   164A      1.194290   165A      1.197491  
     166A      1.210505   167A      1.214229   168A      1.215814  
     169A      1.224121   170A      1.225571   171A      1.231912  
     172A      1.240836   173A      1.251566   174A      1.257269  
     175A      1.258587   176A      1.272274   177A      1.278588  
     178A      1.288511   179A      1.297618   180A      1.313909  
     181A      1.315182   182A      1.332936   183A      1.350654  
     184A      1.351854   185A      1.362843   186A      1.367439  
     187A      1.376858   188A      1.380519   189A      1.400981  
     190A      1.410253   191A      1.430563   192A      1.431340  
     193A      1.443828   194A      1.459132   195A      1.485877  
     196A      1.503036   197A      1.512867   198A      1.536256  
     199A      1.543974   200A      1.554713   201A      1.600780  
     202A      1.614549   203A      1.669968   204A      1.691542  
     205A      1.731765   206A      1.738853   207A      1.749353  
     208A      1.751325   209A      1.766546   210A      1.784397  
     211A      1.786750   212A      1.791563   213A      1.793222  
     214A      1.815286   215A      1.823431   216A      1.852828  
     217A      1.865346   218A      1.889644   219A      1.890711  
     220A      1.913588   221A      1.919539   222A      1.919990  
     223A      1.947255   224A      1.949811   225A      1.982332  
     226A      1.990648   227A      2.004523   228A      2.009935  
     229A      2.015457   230A      2.025258   231A      2.033633  
     232A      2.033733   233A      2.042001   234A      2.057025  
     235A      2.059323   236A      2.059755   237A      2.065272  
     238A      2.068688   239A      2.077945   240A      2.080594  
     241A      2.084790   242A      2.085838   243A      2.117790  
     244A      2.127750   245A      2.137786   246A      2.143093  
     247A      2.150850   248A      2.157917   249A      2.162192  
     250A      2.171233   251A      2.174200   252A      2.185399  
     253A      2.200481   254A      2.211571   255A      2.214437  
     256A      2.228115   257A      2.237175   258A      2.238271  
     259A      2.245484   260A      2.263428   261A      2.265246  
     262A      2.270619   263A      2.270932   264A      2.283252  
     265A      2.287154   266A      2.288236   267A      2.305419  
     268A      2.310294   269A      2.310726   270A      2.312987  
     271A      2.321361   272A      2.329867   273A      2.339059  
     274A      2.344042   275A      2.353439   276A      2.356028  
     277A      2.357330   278A      2.370470   279A      2.384657  
     280A      2.390950   281A      2.397970   282A      2.400913  
     283A      2.422415   284A      2.424050   285A      2.433878  
     286A      2.436512   287A      2.443462   288A      2.447221  
     289A      2.475348   290A      2.484714   291A      2.486738  
     292A      2.497777   293A      2.513135   294A      2.519794  
     295A      2.524009   296A      2.526817   297A      2.538156  
     298A      2.544938   299A      2.551073   300A      2.559256  
     301A      2.580249   302A      2.592300   303A      2.604160  
     304A      2.622448   305A      2.638317   306A      2.640254  
     307A      2.642012   308A      2.645707   309A      2.657497  
     310A      2.661815   311A      2.677211   312A      2.693720  
     313A      2.695356   314A      2.705019   315A      2.721323  
     316A      2.727353   317A      2.739780   318A      2.743769  
     319A      2.758071   320A      2.770253   321A      2.779016  
     322A      2.780016   323A      2.797669   324A      2.803976  
     325A      2.804672   326A      2.814271   327A      2.821929  
     328A      2.823093   329A      2.838413   330A      2.839699  
     331A      2.849147   332A      2.850124   333A      2.851528  
     334A      2.856888   335A      2.874973   336A      2.886469  
     337A      2.889140   338A      2.894131   339A      2.910127  
     340A      2.913245   341A      2.926692   342A      2.928681  
     343A      2.949963   344A      2.952010   345A      2.961060  
     346A      2.975088   347A      2.979026   348A      2.994248  
     349A      3.000643   350A      3.004040   351A      3.011027  
     352A      3.011276   353A      3.036435   354A      3.048998  
     355A      3.056453   356A      3.071984   357A      3.081061  
     358A      3.095462   359A      3.097551   360A      3.112146  
     361A      3.113936   362A      3.117211   363A      3.122732  
     364A      3.134310   365A      3.147756   366A      3.164971  
     367A      3.165640   368A      3.168819   369A      3.178801  
     370A      3.195888   371A      3.202718   372A      3.210555  
     373A      3.217910   374A      3.226975   375A      3.239963  
     376A      3.248239   377A      3.269994   378A      3.276857  
     379A      3.284293   380A      3.295818   381A      3.306917  
     382A      3.323516   383A      3.324386   384A      3.350163  
     385A      3.351456   386A      3.357856   387A      3.373992  
     388A      3.377581   389A      3.382876   390A      3.388418  
     391A      3.400027   392A      3.403523   393A      3.412067  
     394A      3.418737   395A      3.424439   396A      3.430256  
     397A      3.445984   398A      3.473394   399A      3.488248  
     400A      3.488525   401A      3.504910   402A      3.509211  
     403A      3.515130   404A      3.516993   405A      3.542661  
     406A      3.544261   407A      3.557540   408A      3.560225  
     409A      3.564646   410A      3.580281   411A      3.580702  
     412A      3.610555   413A      3.614369   414A      3.624262  
     415A      3.642796   416A      3.657784   417A      3.669291  
     418A      3.692644   419A      3.704426   420A      3.713786  
     421A      3.718384   422A      3.731492   423A      3.739722  
     424A      3.745550   425A      3.758972   426A      3.769494  
     427A      3.784179   428A      3.807391   429A      3.808294  
     430A      3.820887   431A      3.842852   432A      3.848912  
     433A      3.864039   434A      3.869618   435A      3.872417  
     436A      3.890330   437A      3.890980   438A      3.900343  
     439A      3.904154   440A      3.909343   441A      3.933371  
     442A      3.934306   443A      3.957405   444A      3.970018  
     445A      3.975391   446A      4.001360   447A      4.003824  
     448A      4.040929   449A      4.053252   450A      4.071347  
     451A      4.071466   452A      4.097956   453A      4.110486  
     454A      4.132793   455A      4.149026   456A      4.155602  
     457A      4.162522   458A      4.181783   459A      4.189589  
     460A      4.207215   461A      4.210814   462A      4.221570  
     463A      4.235922   464A      4.246029   465A      4.249544  
     466A      4.258859   467A      4.272904   468A      4.276514  
     469A      4.283019   470A      4.297263   471A      4.309616  
     472A      4.316547   473A      4.322353   474A      4.338147  
     475A      4.339310   476A      4.368569   477A      4.385125  
     478A      4.397350   479A      4.401736   480A      4.409807  
     481A      4.437828   482A      4.442306   483A      4.449329  
     484A      4.464556   485A      4.479833   486A      4.543008  
     487A      4.561063   488A      4.563652   489A      4.629658  
     490A      4.634376   491A      4.651916   492A      4.665859  
     493A      5.272399   494A      5.332781   495A      5.346812  
     496A      5.411042   497A      5.478378   498A      5.492928  
     499A      5.527910   500A      5.537404   501A      5.570395  
     502A      5.589301   503A      5.598912   504A      5.605150  
     505A      5.650636   506A      5.671191   507A      5.695040  
     508A      5.708896   509A      5.714885   510A      5.719080  
     511A      5.736809   512A      5.755214   513A      5.776314  
     514A      5.781208   515A      5.797506   516A      5.804242  
     517A      5.809040   518A      5.813734   519A      5.854133  
     520A      5.855709   521A      5.862306   522A      5.880823  
     523A      5.890078   524A      5.895081   525A      5.940689  
     526A      5.947524   527A      5.954266   528A      5.985565  
     529A      5.996967   530A      5.999867   531A      6.017147  
     532A      6.020457   533A      6.032714   534A      6.051386  
     535A      6.066882   536A      6.078822   537A      6.094784  
     538A      6.101477   539A      6.109852   540A      6.126814  
     541A      6.127273   542A      6.147530   543A      6.163291  
     544A      6.165012   545A      6.173652   546A      6.175557  
     547A      6.194438   548A      6.196704   549A      6.206249  
     550A      6.212530   551A      6.225948   552A      6.230728  
     553A      6.231536   554A      6.238647   555A      6.241757  
     556A      6.255297   557A      6.257904   558A      6.271191  
     559A      6.271801   560A      6.282262   561A      6.292432  
     562A      6.295805   563A      6.311857   564A      6.331261  
     565A      6.332224   566A      6.338843   567A      6.344741  
     568A      6.361024   569A      6.367837   570A      6.381357  
     571A      6.389388   572A      6.401186   573A      6.401963  
     574A      6.420698   575A      6.421401   576A      6.431095  
     577A      6.452536   578A      6.453795   579A      6.459514  
     580A      6.478647   581A      6.493709   582A      6.494481  
     583A      6.494717   584A      6.511966   585A      6.521392  
     586A      6.530233   587A      6.536425   588A      6.536810  
     589A      6.543533   590A      6.549429   591A      6.561413  
     592A      6.564483   593A      6.565601   594A      6.570221  
     595A      6.576344   596A      6.582407   597A      6.588200  
     598A      6.595125   599A      6.599440   600A      6.608698  
     601A      6.620331   602A      6.620494   603A      6.625033  
     604A      6.639189   605A      6.643722   606A      6.652016  
     607A      6.653830   608A      6.665114   609A      6.670932  
     610A      6.692778   611A      6.703183   612A      6.708776  
     613A      6.717156   614A      6.722188   615A      6.731785  
     616A      6.735795   617A      6.736459   618A      6.749531  
     619A      6.757049   620A      6.761661   621A      6.772581  
     622A      6.774794   623A      6.775217   624A      6.791129  
     625A      6.797017   626A      6.806093   627A      6.814298  
     628A      6.823936   629A      6.830566   630A      6.834799  
     631A      6.842021   632A      6.857887   633A      6.869451  
     634A      6.878335   635A      6.881559   636A      6.900270  
     637A      6.914508   638A      6.923756   639A      6.930243  
     640A      6.955202   641A      6.960990   642A      6.983110  
     643A      6.989073   644A      6.995177   645A      7.001243  
     646A      7.019261   647A      7.028532   648A      7.038313  
     649A      7.045936   650A      7.054449   651A      7.064786  
     652A      7.073932   653A      7.093138   654A      7.127253  
     655A      7.141799   656A      7.150705   657A      7.177184  
     658A      7.184189   659A      7.202358   660A      7.220818  
     661A      7.221023   662A      7.232290   663A      7.244696  
     664A      7.245918   665A      7.265787   666A      7.268398  
     667A      7.284402   668A      7.301429   669A      7.310742  
     670A      7.333280   671A      7.337799   672A      7.351184  
     673A      7.371775   674A      7.374525   675A      7.390771  
     676A      7.399080   677A      7.404939   678A      7.439225  
     679A      7.447062   680A      7.459046   681A      7.473599  
     682A      7.480728   683A      7.485006   684A      7.505003  
     685A      7.507772   686A      7.523955   687A      7.538045  
     688A      7.556336   689A      7.563290   690A      7.568347  
     691A      7.576812   692A      7.581373   693A      7.614658  
     694A      7.642879   695A      7.658070   696A      7.661819  
     697A      7.691911   698A      7.699160   699A      7.723019  
     700A      7.730032   701A      7.732753   702A      7.737818  
     703A      7.756844   704A      7.771326   705A      7.773141  
     706A      7.793588   707A      7.801254   708A      7.805249  
     709A      7.812530   710A      7.817641   711A      7.835649  
     712A      7.862560   713A      7.875681   714A      7.893184  
     715A      7.904364   716A      7.912510   717A      7.914438  
     718A      7.931459   719A      7.935850   720A      7.946957  
     721A      7.949007   722A      7.961964   723A      7.970110  
     724A      7.975465   725A      7.980000   726A      7.983296  
     727A      7.990256   728A      8.002526   729A      8.018282  
     730A      8.021345   731A      8.035951   732A      8.040939  
     733A      8.056209   734A      8.058432   735A      8.078831  
     736A      8.079913   737A      8.090830   738A      8.102319  
     739A      8.112396   740A      8.125121   741A      8.126939  
     742A      8.151969   743A      8.156143   744A      8.180050  
     745A      8.181875   746A      8.193082   747A      8.203874  
     748A      8.211167   749A      8.225289   750A      8.228561  
     751A      8.234083   752A      8.238373   753A      8.248877  
     754A      8.262342   755A      8.268929   756A      8.280435  
     757A      8.291985   758A      8.296921   759A      8.298534  
     760A      8.320332   761A      8.328469   762A      8.334662  
     763A      8.345099   764A      8.346229   765A      8.368965  
     766A      8.371940   767A      8.388419   768A      8.400409  
     769A      8.403580   770A      8.410928   771A      8.420694  
     772A      8.429943   773A      8.444081   774A      8.457562  
     775A      8.465361   776A      8.465737   777A      8.470720  
     778A      8.481685   779A      8.485097   780A      8.491001  
     781A      8.495567   782A      8.504502   783A      8.521220  
     784A      8.522339   785A      8.534333   786A      8.548887  
     787A      8.549220   788A      8.553674   789A      8.578426  
     790A      8.607791   791A      8.617025   792A      8.631113  
     793A      8.642818   794A      8.651379   795A      8.667203  
     796A      8.701348   797A      8.708688   798A      8.720535  
     799A      8.730269   800A      8.734457   801A      8.749388  
     802A      8.753020   803A      8.766442   804A      8.767909  
     805A      8.790344   806A      8.795706   807A      8.805023  
     808A      8.809531   809A      8.827498   810A      8.831542  
     811A      8.852429   812A      8.868667   813A      8.871742  
     814A      8.878380   815A      8.892316   816A      8.905670  
     817A      8.915058   818A      8.923361   819A      8.931966  
     820A      8.938560   821A      8.949195   822A      8.967956  
     823A      8.978081   824A      8.980943   825A      8.996252  
     826A      9.007375   827A      9.008889   828A      9.025215  
     829A      9.037293   830A      9.040340   831A      9.060537  
     832A      9.063659   833A      9.072897   834A      9.090537  
     835A      9.113591   836A      9.115369   837A      9.124822  
     838A      9.135846   839A      9.143183   840A      9.151625  
     841A      9.191583   842A      9.206096   843A      9.221436  
     844A      9.229715   845A      9.243520   846A      9.256224  
     847A      9.263983   848A      9.272518   849A      9.284650  
     850A      9.293064   851A      9.311613   852A      9.314948  
     853A      9.317207   854A      9.334467   855A      9.334773  
     856A      9.342066   857A      9.353896   858A      9.367979  
     859A      9.378454   860A      9.384690   861A      9.389873  
     862A      9.403953   863A      9.414598   864A      9.417678  
     865A      9.433726   866A      9.434781   867A      9.436822  
     868A      9.456151   869A      9.457930   870A      9.461654  
     871A      9.486017   872A      9.506502   873A      9.508335  
     874A      9.517777   875A      9.525217   876A      9.526793  
     877A      9.534395   878A      9.546679   879A      9.560441  
     880A      9.560997   881A      9.579773   882A      9.588284  
     883A      9.590044   884A      9.598645   885A      9.603751  
     886A      9.615355   887A      9.633664   888A      9.635973  
     889A      9.659910   890A      9.689848   891A      9.695456  
     892A      9.720384   893A      9.726704   894A      9.764660  
     895A      9.776915   896A      9.778334   897A      9.785347  
     898A      9.863296   899A      9.867194   900A      9.876449  
     901A     10.217759   902A     10.224635   903A     10.228408  
     904A     10.237678   905A     10.248384   906A     10.252017  
     907A     10.263356   908A     10.267223   909A     10.311458  
     910A     10.328695   911A     10.339968   912A     10.415223  
     913A     10.433784   914A     10.439331   915A     10.462933  
     916A     10.488452   917A     10.498717   918A     10.542528  
     919A     10.561900   920A     10.572234   921A     10.572870  
     922A     10.590484   923A     10.602563   924A     10.606530  
     925A     10.624543   926A     10.625318   927A     10.657260  
     928A     10.683910   929A     10.686334   930A     10.698667  
     931A     10.702902   932A     10.703821   933A     10.722265  
     934A     10.752285   935A     10.752920   936A     10.790555  
     937A     10.802030   938A     10.809933   939A     10.865248  
     940A     10.867602   941A     10.876756   942A     10.879577  
     943A     10.887324   944A     10.892337   945A     10.925225  
     946A     10.930806   947A     10.948965   948A     10.968838  
     949A     10.979530   950A     11.028510   951A     11.073873  
     952A     11.078459   953A     11.170671   954A     11.183745  
     955A     11.805365   956A     11.839203   957A     12.173990  
     958A     12.175301   959A     12.220784   960A     12.367706  
     961A     12.488271   962A     12.612918   963A     12.915264  
     964A     12.922858   965A     12.970546   966A     12.990890  
     967A     12.999173   968A     13.023001   969A     13.031963  
     970A     13.064596   971A     13.074342   972A     13.145876  
     973A     26.656984   974A     26.700706   975A     26.730845  
     976A     26.810263   977A     26.994101   978A     27.179169  
     979A     27.338341   980A     27.381054  

    Final Occupation by Irrep:
              A 
    DOCC [    33 ]

  Energy converged.

  @DF-RHF Final Energy:  -313.55754113868164

   => Energetics <=

    Nuclear Repulsion Energy =            404.7235637406041064
    One-Electron Energy =               -1224.6269153976686539
    Two-Electron Energy =                 506.3458105183833027
    DFT Exchange-Correlation Energy =       0.0000000000000000
    Empirical Dispersion Energy =           0.0000000000000000
    PCM Polarization Energy =               0.0000000000000000
    EFP Energy =                            0.0000000000000000
    Total Energy =                       -313.5575411386813016


  Saving occupied orbitals to File 180.

*** tstop() called on wr37 at Thu Sep 22 07:17:03 2016
Module time:
	user time   =     665.57 seconds =      11.09 minutes
	system time =       7.65 seconds =       0.13 minutes
	total time  =         65 seconds =       1.08 minutes
Total time:
	user time   =     856.52 seconds =      14.28 minutes
	system time =      11.59 seconds =       0.19 minutes
	total time  =         87 seconds =       1.45 minutes


Properties will be evaluated at   0.000000,   0.000000,   0.000000 Bohr

Properties computed using the SCF density matrix

  Nuclear Dipole Moment: (a.u.)
     X:     0.0021      Y:    -0.0009      Z:    -2.3946

  Electronic Dipole Moment: (a.u.)
     X:    -0.0021      Y:     0.0009      Z:     2.4328

  Dipole Moment: (a.u.)
     X:    -0.0000      Y:     0.0000      Z:     0.0383     Total:     0.0383

  Dipole Moment: (Debye)
     X:    -0.0001      Y:     0.0000      Z:     0.0973     Total:     0.0973


  //>>>>>>>>>>>>>>>>>>>>>>>>>>>>>>>>>>>//
  //               DFMP2               //
  //<<<<<<<<<<<<<<<<<<<<<<<<<<<<<<<<<<<//


*** tstart() called on wr37
*** at Thu Sep 22 07:17:03 2016


*** tstop() called on wr37 at Thu Sep 22 07:17:03 2016
Module time:
	user time   =       3.26 seconds =       0.05 minutes
	system time =       0.07 seconds =       0.00 minutes
	total time  =          0 seconds =       0.00 minutes
Total time:
	user time   =     859.91 seconds =      14.33 minutes
	system time =      11.66 seconds =       0.19 minutes
	total time  =         87 seconds =       1.45 minutes
	 --------------------------------------------------------
	                          DF-MP2                         
	      2nd-Order Density-Fitted Moller-Plesset Theory     
	              RMP2 Wavefunction,  12 Threads             
	                                                         
	        Rob Parrish, Justin Turney, Andy Simmonett,      
	           Ed Hohenstein, and C. David Sherrill          
	 --------------------------------------------------------

   => Auxiliary Basis Set <=

  Basis Set: 
    Number of shells: 510
    Number of basis function: 2046
    Number of Cartesian functions: 2708
    Spherical Harmonics?: true
    Max angular momentum: 5

	 --------------------------------------------------------
	                 NBF =   980, NAUX =  2046
	 --------------------------------------------------------
	   CLASS    FOCC     OCC    AOCC    AVIR     VIR    FVIR
	   PAIRS       8      33      25     947     947       0
	 --------------------------------------------------------

	-----------------------------------------------------------
	 ==================> DF-MP2 Energies <==================== 
	-----------------------------------------------------------
	 Reference Energy          =    -313.5575411386816427 [Eh]
	 Singles Energy            =      -0.0000000000021411 [Eh]
	 Same-Spin Energy          =      -0.3240308001428954 [Eh]
	 Opposite-Spin Energy      =      -1.1841900060316604 [Eh]
	 Correlation Energy        =      -1.5082208061766968 [Eh]
	 Total Energy              =    -315.0657619448583660 [Eh]
	-----------------------------------------------------------
	 ================> DF-SCS-MP2 Energies <================== 
	-----------------------------------------------------------
	 SCS Same-Spin Scale       =       0.3333333333333333 [-]
	 SCS Opposite-Spin Scale   =       1.2000000000000000 [-]
	 SCS Same-Spin Energy      =      -0.1080102667142984 [Eh]
	 SCS Opposite-Spin Energy  =      -1.4210280072379924 [Eh]
	 SCS Correlation Energy    =      -1.5290382739544319 [Eh]
	 SCS Total Energy          =    -315.0865794126360697 [Eh]
	-----------------------------------------------------------


  //>>>>>>>>>>>>>>>>>>>>>>>>>>>>>>>>>>>//
  //    CBS Results: custom function   //
  //<<<<<<<<<<<<<<<<<<<<<<<<<<<<<<<<<<<//


   ==> Helgaker 2-point SCF extrapolation for method: HF <==

   LO-zeta (3) Energy:               -313.537802483221
   HI-zeta (4) Energy:               -313.557541138681
   Alpha (exponent) Value:             1.630000000000
   Beta (coefficient) Value:           3.263799669824

   @Extrapolated HF/(T,Q):          -313.562350899411



   ==> Helgaker 2-point correlated extrapolation for method: MP2 <==

   LO-zeta (3) Energy:               -314.959949284875
   HI-zeta (4) Energy:               -315.065761944858
   Extrapolated Energy:              -315.142976588630

   @Extrapolated MP2/(T,Q):          -315.142976588630



   ==> Helgaker 2-point correlated extrapolation for method: HF <==

   LO-zeta (3) Energy:               -313.537802483221
   HI-zeta (4) Energy:               -313.557541138681
   Extrapolated Energy:              -313.571945022396

   @Extrapolated HF/(T,Q):           -313.571945022396


   ==> Components <==

  ---------------------------------------------------------------------------------------------------------
                          Method / Basis                      Rqd      Energy [Eh]   Variable
  ---------------------------------------------------------------------------------------------------------
                             mp2 / cc-pvtz                      *    -314.95994928   MP2 TOTAL ENERGY
                              hf / cc-pvtz                      *    -313.53780248   HF TOTAL ENERGY
                             mp2 / cc-pvqz                      *    -315.06576194   MP2 TOTAL ENERGY
                              hf / cc-pvqz                      *    -313.55754114   HF TOTAL ENERGY
  ---------------------------------------------------------------------------------------------------------

   ==> Stages <==

  ---------------------------------------------------------------------------------------------------------
      Stage               Method / Basis                       Wt      Energy [Eh]   Scheme
  ---------------------------------------------------------------------------------------------------------
        scf                   hf / cc-pv[tq]z                   1    -313.56235090   scf_xtpl_helgaker_2
       corl                  mp2 / cc-pv[tq]z                   1    -315.14297659   corl_xtpl_helgaker_2
       corl                   hf / cc-pv[tq]z                  -1    -313.57194502   corl_xtpl_helgaker_2
  ---------------------------------------------------------------------------------------------------------

   ==> CBS <==

  ---------------------------------------------------------------------------------------------------------
      Stage               Method / Basis                               Energy [Eh]   Scheme
  ---------------------------------------------------------------------------------------------------------
        scf                   hf / cc-pv[tq]z                        -313.56235090   scf_xtpl_helgaker_2
       corl                  mp2 / cc-pv[tq]z                          -1.57103157   corl_xtpl_helgaker_2
      total                  CBS                                     -315.13338247   
  ---------------------------------------------------------------------------------------------------------

*** Psi4 exiting successfully. Buy a developer a beer!
