    -----------------------------------------------------------------------
          Psi4: An Open-Source Ab Initio Electronic Structure Package
                              Psi4 1.0.0 Driver

                          Git: Rev {master} 6a9a71b dirty

    J. M. Turney, A. C. Simmonett, R. M. Parrish, E. G. Hohenstein,
    F. A. Evangelista, J. T. Fermann, B. J. Mintz, L. A. Burns, J. J. Wilke,
    M. L. Abrams, N. J. Russ, M. L. Leininger, C. L. Janssen, E. T. Seidl,
    W. D. Allen, H. F. Schaefer, R. A. King, E. F. Valeev, C. D. Sherrill,
    and T. D. Crawford, WIREs Comput. Mol. Sci. 2, 556-565 (2012)
    (doi: 10.1002/wcms.93)

                         Additional Contributions by
    A. E. DePrince, U. Bozkaya, A. Yu. Sokolov, D. G. A. Smith, R. Di Remigio,
    R. M. Richard, J. F. Gonthier, H. R. McAlexander, M. Saitow, and
    B. P. Pritchard
    -----------------------------------------------------------------------


    Psi4 started on: Thu Sep 22 07:15:35 2016

    Process ID:  32617
    PSI4DATADIR: /usr/local/hpc5/psi4conda/share/psi4
    Memory level set to 256.000 MB

  ==> Input File <==

--------------------------------------------------------------------------
memory 60 Gb

molecule molecule_04_psi {
0 1
    C            4.278345582020    -0.538658701622     0.102600392206
    H            5.220716814110    -0.073512389847    -0.185542366576
    H            4.205268308020    -1.496560543363    -0.413821002816
    H            4.317976498252    -0.741609750931     1.173511504362
    C           -3.672185009403    -1.054566307283    -0.312165779320
    H           -2.966958076823    -1.842899058034    -0.052090512992
    H           -3.670569213981    -0.949842002600    -1.398512854686
    H           -4.664807022939    -1.387509941482    -0.009915524287
    C            3.086142646703     0.348223750229    -0.234588799493
    H            3.075456810334     0.561106643283    -1.306836395660
    H            3.187670777491     1.311970948867     0.271385295951
    C           -3.307494043086     0.267454356177     0.354888876646
    H           -4.093198870748     0.999057431572     0.153807705787
    H           -3.277444849736     0.135192452769     1.439962917325
    C            1.758442460729    -0.285410795304     0.161197170010
    H            1.766567102105    -0.498590978129     1.235050249775
    H            1.654720072109    -1.250841723480    -0.344602796923
    C            0.555402540735     0.588098424729    -0.169628274014
    H            0.546293105166     0.798414966445    -1.243966640401
    H            0.660563268717     1.554500484074     0.333669954773
    C           -0.771861055976    -0.045392339646     0.228800536019
    H           -0.862744187780    -1.015690918174    -0.266139517670
    H           -0.769327931672    -0.243591276069     1.305999737769
    C           -1.969424664287     0.832546116755    -0.116094082968
    H           -1.819056597441     1.820090899406     0.329452024265
    H           -2.003519531334     0.983243334025    -1.200133741929
}

set globals {
  reference rhf
  freeze_core true
}
energy(cbs, corl_wfn='mp2', corl_basis='cc-pv[tq]z', scf_basis='cc-pv[tq]z', corl_scheme=corl_xtpl_helgaker_2, scf_scheme=scf_xtpl_helgaker_2)
--------------------------------------------------------------------------
/usr/local/hpc5/psi4conda/lib/python2.7/site-packages/v2rdm_casscf/v2rdm_casscf.so loaded.

  Memory set to  60.000 GiB by Python script.

  //>>>>>>>>>>>>>>>>>>>>>>>>>>>>>>>>>>>//
  //     CBS Setup: custom function    //
  //<<<<<<<<<<<<<<<<<<<<<<<<<<<<<<<<<<<//

    Naive listing of computations required.
             hf / cc-pvtz                  for  HF TOTAL ENERGY
             hf / cc-pvqz                  for  HF TOTAL ENERGY
            mp2 / cc-pvtz                  for  MP2 TOTAL ENERGY
            mp2 / cc-pvqz                  for  MP2 TOTAL ENERGY
             hf / cc-pvtz                  for  HF TOTAL ENERGY
             hf / cc-pvqz                  for  HF TOTAL ENERGY

    Enlightened listing of computations required.
            mp2 / cc-pvtz                  for  MP2 TOTAL ENERGY
            mp2 / cc-pvqz                  for  MP2 TOTAL ENERGY

    Full listing of computations to be obtained (required and bonus).
            mp2 / cc-pvtz                  for  MP2 TOTAL ENERGY
             hf / cc-pvtz                  for  HF TOTAL ENERGY
            mp2 / cc-pvqz                  for  MP2 TOTAL ENERGY
             hf / cc-pvqz                  for  HF TOTAL ENERGY

  //>>>>>>>>>>>>>>>>>>>>>>>>>>>>>>>>>>>//
  //   CBS Computation: MP2 / CC-PVTZ  //
  //<<<<<<<<<<<<<<<<<<<<<<<<<<<<<<<<<<<//

    SCF Algorithm Type (re)set to DF.

*** tstart() called on wr40
*** at Thu Sep 22 07:15:36 2016


         ---------------------------------------------------------
                                   SCF
            by Justin Turney, Rob Parrish, and Andy Simmonett
                              RHF Reference
                       12 Threads,  60000 MiB Core
         ---------------------------------------------------------

  ==> Geometry <==

    Molecular point group: c1
    Full point group: C1

    Geometry (in Angstrom), charge = 0, multiplicity = 1:

       Center              X                  Y                   Z               Mass       
    ------------   -----------------  -----------------  -----------------  -----------------
           C          4.278345582020    -0.538658701622     0.102600392206    12.000000000000
           H          5.220716814110    -0.073512389847    -0.185542366576     1.007825032070
           H          4.205268308020    -1.496560543363    -0.413821002816     1.007825032070
           H          4.317976498252    -0.741609750931     1.173511504362     1.007825032070
           C         -3.672185009403    -1.054566307283    -0.312165779320    12.000000000000
           H         -2.966958076823    -1.842899058034    -0.052090512992     1.007825032070
           H         -3.670569213981    -0.949842002600    -1.398512854686     1.007825032070
           H         -4.664807022939    -1.387509941482    -0.009915524287     1.007825032070
           C          3.086142646703     0.348223750229    -0.234588799493    12.000000000000
           H          3.075456810334     0.561106643283    -1.306836395660     1.007825032070
           H          3.187670777491     1.311970948867     0.271385295951     1.007825032070
           C         -3.307494043086     0.267454356177     0.354888876646    12.000000000000
           H         -4.093198870748     0.999057431572     0.153807705787     1.007825032070
           H         -3.277444849736     0.135192452769     1.439962917325     1.007825032070
           C          1.758442460729    -0.285410795304     0.161197170010    12.000000000000
           H          1.766567102105    -0.498590978129     1.235050249775     1.007825032070
           H          1.654720072109    -1.250841723480    -0.344602796923     1.007825032070
           C          0.555402540735     0.588098424729    -0.169628274014    12.000000000000
           H          0.546293105166     0.798414966445    -1.243966640401     1.007825032070
           H          0.660563268717     1.554500484074     0.333669954773     1.007825032070
           C         -0.771861055976    -0.045392339646     0.228800536019    12.000000000000
           H         -0.862744187780    -1.015690918174    -0.266139517670     1.007825032070
           H         -0.769327931672    -0.243591276069     1.305999737769     1.007825032070
           C         -1.969424664287     0.832546116755    -0.116094082968    12.000000000000
           H         -1.819056597441     1.820090899406     0.329452024265     1.007825032070
           H         -2.003519531334     0.983243334025    -1.200133741929     1.007825032070

  Running in c1 symmetry.

  Rotational constants: A =      0.22730  B =      0.01849  C =      0.01778 [cm^-1]
  Rotational constants: A =   6814.20967  B =    554.18793  C =    533.12681 [MHz]
  Nuclear repulsion =  380.641480955213581

  Charge       = 0
  Multiplicity = 1
  Electrons    = 66
  Nalpha       = 33
  Nbeta        = 33

  ==> Algorithm <==

  SCF Algorithm Type is DF.
  DIIS enabled.
  MOM disabled.
  Fractional occupation disabled.
  Guess Type is SAD.
  Energy threshold   = 1.00e-08
  Density threshold  = 1.00e-08
  Integral threshold = 0.00e+00

  ==> Primary Basis <==

  Basis Set: CC-PVTZ
    Number of shells: 188
    Number of basis function: 492
    Number of Cartesian functions: 550
    Spherical Harmonics?: true
    Max angular momentum: 3

  ==> Pre-Iterations <==

   -------------------------------------------------------
    Irrep   Nso     Nmo     Nalpha   Nbeta   Ndocc  Nsocc
   -------------------------------------------------------
     A        492     492       0       0       0       0
   -------------------------------------------------------
    Total     492     492      33      33      33       0
   -------------------------------------------------------

  ==> Integral Setup <==

  ==> DFJK: Density-Fitted J/K Matrices <==

    J tasked:                  Yes
    K tasked:                  Yes
    wK tasked:                  No
    OpenMP threads:             12
    Integrals threads:          12
    Memory (MB):             42915
    Algorithm:                Core
    Integral Cache:           NONE
    Schwarz Cutoff:          1E-12
    Fitting Condition:       1E-12

   => Auxiliary Basis Set <=

  Basis Set: 
    Number of shells: 380
    Number of basis function: 1172
    Number of Cartesian functions: 1398
    Spherical Harmonics?: true
    Max angular momentum: 4

  Minimum eigenvalue in the overlap matrix is 2.3145685312E-04.
  Using Symmetric Orthogonalization.
  SCF Guess: Superposition of Atomic Densities via on-the-fly atomic UHF.

  ==> Iterations <==

                           Total Energy        Delta E     RMS |[F,P]|

   @DF-RHF iter   0:  -317.67459777873790   -3.17675e+02   1.16266e-02 
   @DF-RHF iter   1:  -313.32971989497997    4.34488e+00   1.04031e-03 
   @DF-RHF iter   2:  -313.52368313758365   -1.93963e-01   3.31204e-04 DIIS
   @DF-RHF iter   3:  -313.54134375377970   -1.76606e-02   1.21046e-04 DIIS
   @DF-RHF iter   4:  -313.54427011798833   -2.92636e-03   2.40167e-05 DIIS
   @DF-RHF iter   5:  -313.54442773846159   -1.57620e-04   5.10745e-06 DIIS
   @DF-RHF iter   6:  -313.54443559443490   -7.85597e-06   1.56136e-06 DIIS
   @DF-RHF iter   7:  -313.54443612569156   -5.31257e-07   3.65066e-07 DIIS
   @DF-RHF iter   8:  -313.54443615717850   -3.14869e-08   8.32078e-08 DIIS
   @DF-RHF iter   9:  -313.54443615878728   -1.60878e-09   2.21864e-08 DIIS
   @DF-RHF iter  10:  -313.54443615889187   -1.04592e-10   6.20567e-09 DIIS

  ==> Post-Iterations <==

    Orbital Energies (a.u.)
    -----------------------

    Doubly Occupied:                                                      

       1A    -11.212786     2A    -11.212401     3A    -11.210411  
       4A    -11.210251     5A    -11.209724     6A    -11.209191  
       7A    -11.206935     8A    -11.206431     9A     -1.093211  
      10A     -1.062469    11A     -1.011575    12A     -0.947276  
      13A     -0.882727    14A     -0.819401    15A     -0.785041  
      16A     -0.771128    17A     -0.654336    18A     -0.623297  
      19A     -0.611543    20A     -0.591975    21A     -0.580920  
      22A     -0.555108    23A     -0.543210    24A     -0.532801  
      25A     -0.510101    26A     -0.495507    27A     -0.487780  
      28A     -0.475925    29A     -0.465096    30A     -0.459502  
      31A     -0.456165    32A     -0.450485    33A     -0.427757  

    Virtual:                                                              

      34A      0.141922    35A      0.148659    36A      0.161416  
      37A      0.163095    38A      0.168613    39A      0.185879  
      40A      0.189487    41A      0.205160    42A      0.214912  
      43A      0.223466    44A      0.230342    45A      0.233437  
      46A      0.240040    47A      0.250451    48A      0.262573  
      49A      0.271984    50A      0.286154    51A      0.290368  
      52A      0.320212    53A      0.326896    54A      0.339748  
      55A      0.349451    56A      0.361118    57A      0.370811  
      58A      0.385447    59A      0.391745    60A      0.400431  
      61A      0.416620    62A      0.431551    63A      0.442115  
      64A      0.464508    65A      0.466793    66A      0.482740  
      67A      0.485072    68A      0.512330    69A      0.518660  
      70A      0.525882    71A      0.536415    72A      0.558147  
      73A      0.563742    74A      0.575690    75A      0.590928  
      76A      0.599834    77A      0.614541    78A      0.621474  
      79A      0.624131    80A      0.626868    81A      0.634062  
      82A      0.641457    83A      0.652222    84A      0.657451  
      85A      0.659405    86A      0.661652    87A      0.667147  
      88A      0.673119    89A      0.674615    90A      0.679710  
      91A      0.692336    92A      0.695581    93A      0.698657  
      94A      0.707264    95A      0.723298    96A      0.731716  
      97A      0.748891    98A      0.751449    99A      0.760608  
     100A      0.793668   101A      0.813302   102A      0.834909  
     103A      0.855600   104A      0.870557   105A      0.887907  
     106A      0.889363   107A      0.909255   108A      0.926019  
     109A      0.942664   110A      0.955740   111A      0.964824  
     112A      0.976921   113A      0.989703   114A      0.998682  
     115A      1.013052   116A      1.017710   117A      1.043981  
     118A      1.050864   119A      1.053806   120A      1.066597  
     121A      1.086059   122A      1.104783   123A      1.128788  
     124A      1.145548   125A      1.152182   126A      1.161599  
     127A      1.173473   128A      1.198947   129A      1.221999  
     130A      1.226947   131A      1.240759   132A      1.251457  
     133A      1.258226   134A      1.264616   135A      1.281381  
     136A      1.287993   137A      1.293477   138A      1.299182  
     139A      1.305246   140A      1.318703   141A      1.327060  
     142A      1.341363   143A      1.342121   144A      1.353200  
     145A      1.364801   146A      1.374111   147A      1.385628  
     148A      1.388811   149A      1.395991   150A      1.401850  
     151A      1.411506   152A      1.422805   153A      1.426172  
     154A      1.433532   155A      1.439797   156A      1.448738  
     157A      1.458450   158A      1.470154   159A      1.481991  
     160A      1.491459   161A      1.494884   162A      1.501677  
     163A      1.513244   164A      1.526748   165A      1.543994  
     166A      1.548174   167A      1.559158   168A      1.567645  
     169A      1.580773   170A      1.591779   171A      1.602517  
     172A      1.611828   173A      1.614942   174A      1.628579  
     175A      1.632157   176A      1.637001   177A      1.662778  
     178A      1.684694   179A      1.692716   180A      1.699062  
     181A      1.706956   182A      1.740969   183A      1.753101  
     184A      1.755003   185A      1.764543   186A      1.783536  
     187A      1.790814   188A      1.799035   189A      1.810156  
     190A      1.828278   191A      1.836064   192A      1.843746  
     193A      1.856113   194A      1.866695   195A      1.889116  
     196A      1.899030   197A      1.932685   198A      1.954399  
     199A      1.988966   200A      2.012641   201A      2.050828  
     202A      2.092966   203A      2.523633   204A      2.539340  
     205A      2.565308   206A      2.579323   207A      2.619276  
     208A      2.632926   209A      2.654211   210A      2.678840  
     211A      2.688273   212A      2.697986   213A      2.716630  
     214A      2.719472   215A      2.741108   216A      2.755227  
     217A      2.763995   218A      2.778366   219A      2.794675  
     220A      2.802089   221A      2.815186   222A      2.823702  
     223A      2.834940   224A      2.848560   225A      2.862018  
     226A      2.874925   227A      2.891072   228A      2.899353  
     229A      2.928618   230A      2.936084   231A      2.946113  
     232A      2.948602   233A      2.953720   234A      2.967136  
     235A      2.974659   236A      2.995475   237A      3.008159  
     238A      3.024729   239A      3.031450   240A      3.038986  
     241A      3.050865   242A      3.062066   243A      3.083773  
     244A      3.094503   245A      3.105967   246A      3.123878  
     247A      3.138525   248A      3.147214   249A      3.151546  
     250A      3.160151   251A      3.186466   252A      3.195642  
     253A      3.222646   254A      3.244518   255A      3.253441  
     256A      3.259358   257A      3.271256   258A      3.277691  
     259A      3.312074   260A      3.316700   261A      3.323865  
     262A      3.336323   263A      3.341804   264A      3.354940  
     265A      3.364645   266A      3.376783   267A      3.389466  
     268A      3.394206   269A      3.401695   270A      3.408091  
     271A      3.421336   272A      3.424808   273A      3.431049  
     274A      3.431769   275A      3.437007   276A      3.439887  
     277A      3.443511   278A      3.452578   279A      3.457819  
     280A      3.473231   281A      3.480119   282A      3.492805  
     283A      3.499716   284A      3.503261   285A      3.522119  
     286A      3.530888   287A      3.536589   288A      3.546635  
     289A      3.553962   290A      3.571228   291A      3.578546  
     292A      3.579950   293A      3.584976   294A      3.586441  
     295A      3.592692   296A      3.636254   297A      3.638119  
     298A      3.644218   299A      3.650483   300A      3.681364  
     301A      3.698489   302A      3.717384   303A      3.733640  
     304A      3.759288   305A      3.762305   306A      3.771573  
     307A      3.783439   308A      3.795795   309A      3.823665  
     310A      3.836109   311A      3.840606   312A      3.845006  
     313A      3.851180   314A      3.865434   315A      3.870236  
     316A      3.882325   317A      3.908716   318A      3.922122  
     319A      3.923821   320A      3.937160   321A      3.942775  
     322A      3.950665   323A      3.963689   324A      3.968766  
     325A      3.999061   326A      4.012661   327A      4.029531  
     328A      4.051846   329A      4.066416   330A      4.077921  
     331A      4.082634   332A      4.098123   333A      4.112928  
     334A      4.120936   335A      4.127095   336A      4.131714  
     337A      4.134257   338A      4.151255   339A      4.157408  
     340A      4.159747   341A      4.173384   342A      4.183323  
     343A      4.187056   344A      4.198809   345A      4.202607  
     346A      4.211575   347A      4.218586   348A      4.232884  
     349A      4.244422   350A      4.264040   351A      4.273777  
     352A      4.281628   353A      4.292167   354A      4.311450  
     355A      4.324276   356A      4.327207   357A      4.339089  
     358A      4.345659   359A      4.348827   360A      4.360733  
     361A      4.368093   362A      4.381684   363A      4.392339  
     364A      4.402436   365A      4.416671   366A      4.421879  
     367A      4.430111   368A      4.436324   369A      4.438914  
     370A      4.453576   371A      4.455381   372A      4.473479  
     373A      4.484965   374A      4.496143   375A      4.508974  
     376A      4.520535   377A      4.527816   378A      4.540911  
     379A      4.555178   380A      4.567315   381A      4.577530  
     382A      4.585758   383A      4.601682   384A      4.622417  
     385A      4.633131   386A      4.639757   387A      4.645093  
     388A      4.663098   389A      4.669970   390A      4.683792  
     391A      4.685387   392A      4.700910   393A      4.707359  
     394A      4.728671   395A      4.736107   396A      4.767126  
     397A      4.783455   398A      4.785219   399A      4.808124  
     400A      4.827716   401A      4.838592   402A      4.850619  
     403A      4.853505   404A      4.926120   405A      4.954441  
     406A      4.981552   407A      4.992488   408A      5.009704  
     409A      5.020341   410A      5.042852   411A      5.049039  
     412A      5.079132   413A      5.084665   414A      5.107751  
     415A      5.122808   416A      5.150652   417A      5.179969  
     418A      5.184271   419A      5.198751   420A      5.219073  
     421A      5.222534   422A      5.235907   423A      5.247579  
     424A      5.248304   425A      5.256886   426A      5.265098  
     427A      5.267025   428A      5.302648   429A      5.312915  
     430A      5.346329   431A      5.353243   432A      5.356601  
     433A      5.364640   434A      5.375917   435A      5.388656  
     436A      5.411440   437A      5.442417   438A      5.471082  
     439A      5.487705   440A      5.500515   441A      5.512629  
     442A      5.559556   443A      5.575362   444A      5.617535  
     445A      5.621306   446A      5.628804   447A      5.639086  
     448A      5.653484   449A      5.726218   450A      5.728144  
     451A      5.735523   452A      5.740548   453A      5.760517  
     454A      5.769365   455A      5.784287   456A      5.796870  
     457A      5.822491   458A      5.842934   459A      5.852977  
     460A      5.859676   461A      5.875483   462A      5.886251  
     463A      5.913134   464A      5.917751   465A      5.920772  
     466A      5.930591   467A      5.949866   468A      5.957777  
     469A      5.996862   470A      6.013665   471A      6.042206  
     472A      6.088313   473A      6.122659   474A      6.134680  
     475A      6.265963   476A      6.310895   477A      6.324910  
     478A      6.328817   479A      6.351979   480A      6.402537  
     481A      6.419717   482A      6.436569   483A      6.468377  
     484A      6.538148   485A     12.988566   486A     13.307390  
     487A     13.414715   488A     13.486544   489A     13.784372  
     490A     14.023885   491A     14.184385   492A     14.201512  

    Final Occupation by Irrep:
              A 
    DOCC [    33 ]

  Energy converged.

  @DF-RHF Final Energy:  -313.54443615889187

   => Energetics <=

    Nuclear Repulsion Energy =            380.6414809552135807
    One-Electron Energy =               -1176.4269038919917421
    Two-Electron Energy =                 482.2409867778861781
    DFT Exchange-Correlation Energy =       0.0000000000000000
    Empirical Dispersion Energy =           0.0000000000000000
    PCM Polarization Energy =               0.0000000000000000
    EFP Energy =                            0.0000000000000000
    Total Energy =                       -313.5444361588919264


  Saving occupied orbitals to File 180.

*** tstop() called on wr40 at Thu Sep 22 07:15:50 2016
Module time:
	user time   =     135.03 seconds =       2.25 minutes
	system time =       2.95 seconds =       0.05 minutes
	total time  =         14 seconds =       0.23 minutes
Total time:
	user time   =     135.03 seconds =       2.25 minutes
	system time =       2.95 seconds =       0.05 minutes
	total time  =         14 seconds =       0.23 minutes


Properties will be evaluated at   0.000000,   0.000000,   0.000000 Bohr

Properties computed using the SCF density matrix

  Nuclear Dipole Moment: (a.u.)
     X:     0.4759      Y:    -1.2535      Z:    -0.1675

  Electronic Dipole Moment: (a.u.)
     X:    -0.4906      Y:     1.2858      Z:     0.1723

  Dipole Moment: (a.u.)
     X:    -0.0147      Y:     0.0323      Z:     0.0047     Total:     0.0358

  Dipole Moment: (Debye)
     X:    -0.0374      Y:     0.0821      Z:     0.0120     Total:     0.0910


  //>>>>>>>>>>>>>>>>>>>>>>>>>>>>>>>>>>>//
  //               DFMP2               //
  //<<<<<<<<<<<<<<<<<<<<<<<<<<<<<<<<<<<//


*** tstart() called on wr40
*** at Thu Sep 22 07:15:50 2016


*** tstop() called on wr40 at Thu Sep 22 07:15:50 2016
Module time:
	user time   =       3.37 seconds =       0.06 minutes
	system time =       0.11 seconds =       0.00 minutes
	total time  =          0 seconds =       0.00 minutes
Total time:
	user time   =     139.07 seconds =       2.32 minutes
	system time =       3.08 seconds =       0.05 minutes
	total time  =         14 seconds =       0.23 minutes
	 --------------------------------------------------------
	                          DF-MP2                         
	      2nd-Order Density-Fitted Moller-Plesset Theory     
	              RMP2 Wavefunction,  12 Threads             
	                                                         
	        Rob Parrish, Justin Turney, Andy Simmonett,      
	           Ed Hohenstein, and C. David Sherrill          
	 --------------------------------------------------------

   => Auxiliary Basis Set <=

  Basis Set: 
    Number of shells: 364
    Number of basis function: 1188
    Number of Cartesian functions: 1438
    Spherical Harmonics?: true
    Max angular momentum: 4

	 --------------------------------------------------------
	                 NBF =   492, NAUX =  1188
	 --------------------------------------------------------
	   CLASS    FOCC     OCC    AOCC    AVIR     VIR    FVIR
	   PAIRS       8      33      25     459     459       0
	 --------------------------------------------------------

	-----------------------------------------------------------
	 ==================> DF-MP2 Energies <==================== 
	-----------------------------------------------------------
	 Reference Energy          =    -313.5444361588918696 [Eh]
	 Singles Energy            =      -0.0000000000005694 [Eh]
	 Same-Spin Energy          =      -0.3112234905899139 [Eh]
	 Opposite-Spin Energy      =      -1.1052129984760677 [Eh]
	 Correlation Energy        =      -1.4164364890665508 [Eh]
	 Total Energy              =    -314.9608726479584107 [Eh]
	-----------------------------------------------------------
	 ================> DF-SCS-MP2 Energies <================== 
	-----------------------------------------------------------
	 SCS Same-Spin Scale       =       0.3333333333333333 [-]
	 SCS Opposite-Spin Scale   =       1.2000000000000000 [-]
	 SCS Same-Spin Energy      =      -0.1037411635299713 [Eh]
	 SCS Opposite-Spin Energy  =      -1.3262555981712811 [Eh]
	 SCS Correlation Energy    =      -1.4299967617018217 [Eh]
	 SCS Total Energy          =    -314.9744329205936992 [Eh]
	-----------------------------------------------------------


  //>>>>>>>>>>>>>>>>>>>>>>>>>>>>>>>>>>>//
  //   CBS Computation: MP2 / CC-PVQZ  //
  //<<<<<<<<<<<<<<<<<<<<<<<<<<<<<<<<<<<//

    SCF Algorithm Type (re)set to DF.

*** tstart() called on wr40
*** at Thu Sep 22 07:15:59 2016


         ---------------------------------------------------------
                                   SCF
            by Justin Turney, Rob Parrish, and Andy Simmonett
                              RHF Reference
                       12 Threads,  60000 MiB Core
         ---------------------------------------------------------

  ==> Geometry <==

    Molecular point group: c1
    Full point group: C1

    Geometry (in Angstrom), charge = 0, multiplicity = 1:

       Center              X                  Y                   Z               Mass       
    ------------   -----------------  -----------------  -----------------  -----------------
           C          4.278345582020    -0.538658701622     0.102600392206    12.000000000000
           H          5.220716814110    -0.073512389847    -0.185542366576     1.007825032070
           H          4.205268308020    -1.496560543363    -0.413821002816     1.007825032070
           H          4.317976498252    -0.741609750931     1.173511504362     1.007825032070
           C         -3.672185009403    -1.054566307283    -0.312165779320    12.000000000000
           H         -2.966958076823    -1.842899058034    -0.052090512992     1.007825032070
           H         -3.670569213981    -0.949842002600    -1.398512854686     1.007825032070
           H         -4.664807022939    -1.387509941482    -0.009915524287     1.007825032070
           C          3.086142646703     0.348223750229    -0.234588799493    12.000000000000
           H          3.075456810334     0.561106643283    -1.306836395660     1.007825032070
           H          3.187670777491     1.311970948867     0.271385295951     1.007825032070
           C         -3.307494043086     0.267454356177     0.354888876646    12.000000000000
           H         -4.093198870748     0.999057431572     0.153807705787     1.007825032070
           H         -3.277444849736     0.135192452769     1.439962917325     1.007825032070
           C          1.758442460729    -0.285410795304     0.161197170010    12.000000000000
           H          1.766567102105    -0.498590978129     1.235050249775     1.007825032070
           H          1.654720072109    -1.250841723480    -0.344602796923     1.007825032070
           C          0.555402540735     0.588098424729    -0.169628274014    12.000000000000
           H          0.546293105166     0.798414966445    -1.243966640401     1.007825032070
           H          0.660563268717     1.554500484074     0.333669954773     1.007825032070
           C         -0.771861055976    -0.045392339646     0.228800536019    12.000000000000
           H         -0.862744187780    -1.015690918174    -0.266139517670     1.007825032070
           H         -0.769327931672    -0.243591276069     1.305999737769     1.007825032070
           C         -1.969424664287     0.832546116755    -0.116094082968    12.000000000000
           H         -1.819056597441     1.820090899406     0.329452024265     1.007825032070
           H         -2.003519531334     0.983243334025    -1.200133741929     1.007825032070

  Running in c1 symmetry.

  Rotational constants: A =      0.22730  B =      0.01849  C =      0.01778 [cm^-1]
  Rotational constants: A =   6814.20967  B =    554.18793  C =    533.12681 [MHz]
  Nuclear repulsion =  380.641480955213638

  Charge       = 0
  Multiplicity = 1
  Electrons    = 66
  Nalpha       = 33
  Nbeta        = 33

  ==> Algorithm <==

  SCF Algorithm Type is DF.
  DIIS enabled.
  MOM disabled.
  Fractional occupation disabled.
  Guess Type is SAD.
  Energy threshold   = 1.00e-08
  Density threshold  = 1.00e-08
  Integral threshold = 0.00e+00

  ==> Primary Basis <==

  Basis Set: CC-PVQZ
    Number of shells: 300
    Number of basis function: 980
    Number of Cartesian functions: 1190
    Spherical Harmonics?: true
    Max angular momentum: 4

  ==> Pre-Iterations <==

   -------------------------------------------------------
    Irrep   Nso     Nmo     Nalpha   Nbeta   Ndocc  Nsocc
   -------------------------------------------------------
     A        980     980       0       0       0       0
   -------------------------------------------------------
    Total     980     980      33      33      33       0
   -------------------------------------------------------

  ==> Integral Setup <==

  ==> DFJK: Density-Fitted J/K Matrices <==

    J tasked:                  Yes
    K tasked:                  Yes
    wK tasked:                  No
    OpenMP threads:             12
    Integrals threads:          12
    Memory (MB):             42915
    Algorithm:                Core
    Integral Cache:           NONE
    Schwarz Cutoff:          1E-12
    Fitting Condition:       1E-12

   => Auxiliary Basis Set <=

  Basis Set: 
    Number of shells: 458
    Number of basis function: 1766
    Number of Cartesian functions: 2324
    Spherical Harmonics?: true
    Max angular momentum: 5

  Minimum eigenvalue in the overlap matrix is 4.3487525963E-05.
  Using Symmetric Orthogonalization.
  SCF Guess: Superposition of Atomic Densities via on-the-fly atomic UHF.

  ==> Iterations <==

                           Total Energy        Delta E     RMS |[F,P]|

   @DF-RHF iter   0:  -317.20374813520607   -3.17204e+02   5.73226e-03 
   @DF-RHF iter   1:  -313.36415694022344    3.83959e+00   4.88057e-04 
   @DF-RHF iter   2:  -313.54418460248689   -1.80028e-01   1.38945e-04 DIIS
   @DF-RHF iter   3:  -313.56265006994226   -1.84655e-02   4.22520e-05 DIIS
   @DF-RHF iter   4:  -313.56410260322355   -1.45253e-03   1.21117e-05 DIIS
   @DF-RHF iter   5:  -313.56422645999328   -1.23857e-04   2.24019e-06 DIIS
   @DF-RHF iter   6:  -313.56423287858922   -6.41860e-06   4.80896e-07 DIIS
   @DF-RHF iter   7:  -313.56423307039086   -1.91802e-07   1.56200e-07 DIIS
   @DF-RHF iter   8:  -313.56423308938440   -1.89935e-08   2.73713e-08 DIIS
   @DF-RHF iter   9:  -313.56423309013735   -7.52948e-10   8.58486e-09 DIIS

  ==> Post-Iterations <==

    Orbital Energies (a.u.)
    -----------------------

    Doubly Occupied:                                                      

       1A    -11.211679     2A    -11.211297     3A    -11.209298  
       4A    -11.209137     5A    -11.208606     6A    -11.208065  
       7A    -11.205944     8A    -11.205427     9A     -1.092890  
      10A     -1.062168    11A     -1.011296    12A     -0.947030  
      13A     -0.882528    14A     -0.819242    15A     -0.784953  
      16A     -0.771033    17A     -0.654385    18A     -0.623353  
      19A     -0.611609    20A     -0.592038    21A     -0.580994  
      22A     -0.555187    23A     -0.543288    24A     -0.532893  
      25A     -0.510196    26A     -0.495617    27A     -0.487883  
      28A     -0.476066    29A     -0.465199    30A     -0.459704  
      31A     -0.456359    32A     -0.450586    33A     -0.427806  

    Virtual:                                                              

      34A      0.113352    35A      0.120853    36A      0.132456  
      37A      0.135355    38A      0.141127    39A      0.155140  
      40A      0.159633    41A      0.174769    42A      0.179409  
      43A      0.187189    44A      0.200728    45A      0.201136  
      46A      0.207532    47A      0.216548    48A      0.225154  
      49A      0.232772    50A      0.249275    51A      0.256195  
      52A      0.258562    53A      0.277087    54A      0.285205  
      55A      0.289400    56A      0.304305    57A      0.308253  
      58A      0.317905    59A      0.325877    60A      0.337668  
      61A      0.344459    62A      0.353692    63A      0.373792  
      64A      0.380268    65A      0.384813    66A      0.405040  
      67A      0.410170    68A      0.420387    69A      0.426532  
      70A      0.432989    71A      0.433644    72A      0.451309  
      73A      0.455593    74A      0.465696    75A      0.470747  
      76A      0.472254    77A      0.484088    78A      0.494460  
      79A      0.500506    80A      0.511126    81A      0.516965  
      82A      0.524133    83A      0.528420    84A      0.529494  
      85A      0.533741    86A      0.536826    87A      0.541347  
      88A      0.543907    89A      0.549580    90A      0.554506  
      91A      0.564477    92A      0.570171    93A      0.571001  
      94A      0.590704    95A      0.594452    96A      0.611469  
      97A      0.626092    98A      0.638265    99A      0.640554  
     100A      0.677721   101A      0.690253   102A      0.699079  
     103A      0.707490   104A      0.713907   105A      0.734608  
     106A      0.741456   107A      0.756396   108A      0.767003  
     109A      0.781353   110A      0.789331   111A      0.791152  
     112A      0.799430   113A      0.803543   114A      0.807256  
     115A      0.826228   116A      0.834970   117A      0.845348  
     118A      0.851304   119A      0.853357   120A      0.859262  
     121A      0.871308   122A      0.878033   123A      0.884757  
     124A      0.896170   125A      0.904834   126A      0.913323  
     127A      0.922447   128A      0.928247   129A      0.950141  
     130A      0.953748   131A      0.957701   132A      0.967880  
     133A      0.974145   134A      0.978088   135A      0.981158  
     136A      0.988651   137A      1.002852   138A      1.004641  
     139A      1.010634   140A      1.011531   141A      1.019010  
     142A      1.028565   143A      1.033871   144A      1.042848  
     145A      1.050565   146A      1.054604   147A      1.068738  
     148A      1.071171   149A      1.081166   150A      1.083163  
     151A      1.091414   152A      1.107257   153A      1.117349  
     154A      1.118567   155A      1.123768   156A      1.133647  
     157A      1.136828   158A      1.142248   159A      1.148334  
     160A      1.150695   161A      1.154619   162A      1.159193  
     163A      1.166992   164A      1.168809   165A      1.175599  
     166A      1.183306   167A      1.185619   168A      1.187287  
     169A      1.198048   170A      1.202374   171A      1.206472  
     172A      1.208951   173A      1.212488   174A      1.217200  
     175A      1.226695   176A      1.233062   177A      1.244113  
     178A      1.244683   179A      1.248635   180A      1.262025  
     181A      1.282382   182A      1.293594   183A      1.298787  
     184A      1.314222   185A      1.326652   186A      1.348533  
     187A      1.351375   188A      1.364932   189A      1.371683  
     190A      1.384545   191A      1.399126   192A      1.405698  
     193A      1.411035   194A      1.425825   195A      1.448983  
     196A      1.454156   197A      1.481525   198A      1.486928  
     199A      1.499896   200A      1.509466   201A      1.552844  
     202A      1.573876   203A      1.631919   204A      1.661525  
     205A      1.680858   206A      1.698070   207A      1.708149  
     208A      1.720774   209A      1.744237   210A      1.759092  
     211A      1.762096   212A      1.773713   213A      1.781658  
     214A      1.789215   215A      1.811405   216A      1.812200  
     217A      1.829230   218A      1.835572   219A      1.848023  
     220A      1.854904   221A      1.884402   222A      1.894222  
     223A      1.919254   224A      1.939426   225A      1.942450  
     226A      1.955631   227A      1.971355   228A      1.993355  
     229A      2.007892   230A      2.014735   231A      2.019779  
     232A      2.020280   233A      2.036269   234A      2.039514  
     235A      2.046163   236A      2.052136   237A      2.054190  
     238A      2.064462   239A      2.071121   240A      2.081410  
     241A      2.092537   242A      2.102999   243A      2.108812  
     244A      2.116569   245A      2.123226   246A      2.125512  
     247A      2.134930   248A      2.141205   249A      2.151632  
     250A      2.155107   251A      2.162159   252A      2.172867  
     253A      2.187238   254A      2.196705   255A      2.200560  
     256A      2.203904   257A      2.219938   258A      2.221925  
     259A      2.225143   260A      2.232028   261A      2.233644  
     262A      2.240208   263A      2.249335   264A      2.255736  
     265A      2.258430   266A      2.270100   267A      2.275391  
     268A      2.281019   269A      2.284534   270A      2.300946  
     271A      2.303394   272A      2.311842   273A      2.315503  
     274A      2.317213   275A      2.328191   276A      2.332235  
     277A      2.345744   278A      2.350170   279A      2.359022  
     280A      2.361284   281A      2.371705   282A      2.376591  
     283A      2.387916   284A      2.393745   285A      2.401232  
     286A      2.405475   287A      2.409881   288A      2.412585  
     289A      2.426836   290A      2.435024   291A      2.444095  
     292A      2.456644   293A      2.462440   294A      2.470119  
     295A      2.490120   296A      2.492446   297A      2.501583  
     298A      2.511945   299A      2.528687   300A      2.543855  
     301A      2.547260   302A      2.556565   303A      2.560646  
     304A      2.570111   305A      2.582812   306A      2.610666  
     307A      2.619567   308A      2.619838   309A      2.632073  
     310A      2.638783   311A      2.644574   312A      2.664469  
     313A      2.678212   314A      2.681126   315A      2.695060  
     316A      2.705704   317A      2.711648   318A      2.730968  
     319A      2.738076   320A      2.748149   321A      2.756100  
     322A      2.765335   323A      2.780498   324A      2.782048  
     325A      2.785173   326A      2.793138   327A      2.802510  
     328A      2.807726   329A      2.811896   330A      2.820157  
     331A      2.823057   332A      2.827219   333A      2.834445  
     334A      2.840207   335A      2.851414   336A      2.858416  
     337A      2.860950   338A      2.864215   339A      2.869721  
     340A      2.877231   341A      2.888308   342A      2.897403  
     343A      2.905460   344A      2.915649   345A      2.924757  
     346A      2.929969   347A      2.943572   348A      2.950464  
     349A      2.960280   350A      2.971437   351A      2.980266  
     352A      2.998571   353A      3.001415   354A      3.011138  
     355A      3.023863   356A      3.026235   357A      3.038498  
     358A      3.051469   359A      3.067442   360A      3.072683  
     361A      3.082992   362A      3.086790   363A      3.098511  
     364A      3.111288   365A      3.118819   366A      3.141244  
     367A      3.146537   368A      3.156950   369A      3.158723  
     370A      3.168060   371A      3.176311   372A      3.183508  
     373A      3.201924   374A      3.204701   375A      3.218661  
     376A      3.221091   377A      3.231601   378A      3.249536  
     379A      3.256372   380A      3.263919   381A      3.293902  
     382A      3.300777   383A      3.308091   384A      3.321347  
     385A      3.323578   386A      3.345097   387A      3.360601  
     388A      3.369552   389A      3.375122   390A      3.382087  
     391A      3.399784   392A      3.404040   393A      3.409499  
     394A      3.422365   395A      3.427139   396A      3.437212  
     397A      3.442527   398A      3.448190   399A      3.460194  
     400A      3.468224   401A      3.472510   402A      3.474114  
     403A      3.481456   404A      3.483313   405A      3.492102  
     406A      3.509357   407A      3.515361   408A      3.529317  
     409A      3.534834   410A      3.543116   411A      3.553807  
     412A      3.563007   413A      3.582068   414A      3.591894  
     415A      3.598373   416A      3.613855   417A      3.619459  
     418A      3.638815   419A      3.651461   420A      3.659191  
     421A      3.684287   422A      3.715642   423A      3.723750  
     424A      3.737386   425A      3.749259   426A      3.760471  
     427A      3.783011   428A      3.786677   429A      3.792819  
     430A      3.815096   431A      3.831842   432A      3.843380  
     433A      3.868249   434A      3.873058   435A      3.875740  
     436A      3.901195   437A      3.902686   438A      3.908116  
     439A      3.919451   440A      3.927241   441A      3.932812  
     442A      3.953733   443A      3.960663   444A      3.968026  
     445A      3.982574   446A      3.995413   447A      4.020824  
     448A      4.027187   449A      4.034583   450A      4.052152  
     451A      4.063577   452A      4.082663   453A      4.093531  
     454A      4.109946   455A      4.121008   456A      4.130893  
     457A      4.150355   458A      4.156226   459A      4.169711  
     460A      4.188073   461A      4.208235   462A      4.214754  
     463A      4.216145   464A      4.218320   465A      4.224337  
     466A      4.230392   467A      4.239816   468A      4.248892  
     469A      4.254198   470A      4.262652   471A      4.277790  
     472A      4.288384   473A      4.300543   474A      4.306873  
     475A      4.316863   476A      4.335651   477A      4.356035  
     478A      4.373680   479A      4.386053   480A      4.389439  
     481A      4.404520   482A      4.415528   483A      4.422609  
     484A      4.455598   485A      4.473209   486A      4.489179  
     487A      4.501588   488A      4.549456   489A      4.570098  
     490A      4.579136   491A      4.623526   492A      4.644644  
     493A      5.261912   494A      5.284326   495A      5.390984  
     496A      5.435476   497A      5.469490   498A      5.486799  
     499A      5.510955   500A      5.525443   501A      5.549570  
     502A      5.602624   503A      5.626535   504A      5.646535  
     505A      5.660092   506A      5.681810   507A      5.687259  
     508A      5.710461   509A      5.715310   510A      5.740944  
     511A      5.748720   512A      5.759545   513A      5.765600  
     514A      5.771065   515A      5.773898   516A      5.782315  
     517A      5.794240   518A      5.802783   519A      5.817462  
     520A      5.830394   521A      5.840596   522A      5.845724  
     523A      5.859281   524A      5.870543   525A      5.889170  
     526A      5.903038   527A      5.906519   528A      5.920160  
     529A      5.928924   530A      5.944423   531A      5.965213  
     532A      5.987870   533A      6.011753   534A      6.027819  
     535A      6.051829   536A      6.067635   537A      6.083400  
     538A      6.093511   539A      6.106846   540A      6.117802  
     541A      6.121324   542A      6.126070   543A      6.138841  
     544A      6.151608   545A      6.160300   546A      6.162752  
     547A      6.181187   548A      6.193518   549A      6.195016  
     550A      6.206388   551A      6.219448   552A      6.222301  
     553A      6.228164   554A      6.236999   555A      6.240921  
     556A      6.246196   557A      6.248948   558A      6.260850  
     559A      6.270362   560A      6.271593   561A      6.288714  
     562A      6.294421   563A      6.299924   564A      6.305306  
     565A      6.322849   566A      6.331762   567A      6.338943  
     568A      6.355009   569A      6.364401   570A      6.370724  
     571A      6.376745   572A      6.392289   573A      6.397003  
     574A      6.405076   575A      6.413033   576A      6.424226  
     577A      6.429458   578A      6.434960   579A      6.448664  
     580A      6.451729   581A      6.467061   582A      6.477062  
     583A      6.485157   584A      6.496927   585A      6.498891  
     586A      6.504235   587A      6.515435   588A      6.519620  
     589A      6.529167   590A      6.535782   591A      6.540396  
     592A      6.555968   593A      6.559374   594A      6.567401  
     595A      6.569921   596A      6.575039   597A      6.585574  
     598A      6.587240   599A      6.595350   600A      6.597572  
     601A      6.604990   602A      6.609471   603A      6.621517  
     604A      6.626572   605A      6.631926   606A      6.639156  
     607A      6.644285   608A      6.657582   609A      6.665410  
     610A      6.668246   611A      6.671678   612A      6.688992  
     613A      6.694638   614A      6.701706   615A      6.707751  
     616A      6.713072   617A      6.722159   618A      6.734965  
     619A      6.749923   620A      6.760379   621A      6.763560  
     622A      6.767455   623A      6.774602   624A      6.783032  
     625A      6.796674   626A      6.802336   627A      6.814322  
     628A      6.823775   629A      6.839459   630A      6.841597  
     631A      6.848386   632A      6.861104   633A      6.870714  
     634A      6.878019   635A      6.886059   636A      6.896344  
     637A      6.905896   638A      6.912972   639A      6.925469  
     640A      6.926556   641A      6.943640   642A      6.948569  
     643A      6.958400   644A      6.969926   645A      7.002067  
     646A      7.004950   647A      7.012708   648A      7.023105  
     649A      7.035488   650A      7.048761   651A      7.057494  
     652A      7.066280   653A      7.079986   654A      7.092093  
     655A      7.102750   656A      7.109108   657A      7.130613  
     658A      7.145522   659A      7.154810   660A      7.172558  
     661A      7.191810   662A      7.202030   663A      7.222878  
     664A      7.224143   665A      7.238191   666A      7.262943  
     667A      7.269673   668A      7.281161   669A      7.284771  
     670A      7.303872   671A      7.315073   672A      7.328485  
     673A      7.333013   674A      7.349636   675A      7.360761  
     676A      7.369648   677A      7.379394   678A      7.398273  
     679A      7.404349   680A      7.424146   681A      7.433648  
     682A      7.441668   683A      7.452431   684A      7.456010  
     685A      7.471136   686A      7.482255   687A      7.489382  
     688A      7.502506   689A      7.510508   690A      7.526829  
     691A      7.549188   692A      7.555918   693A      7.581720  
     694A      7.586843   695A      7.619725   696A      7.653868  
     697A      7.675631   698A      7.684709   699A      7.693838  
     700A      7.702978   701A      7.707947   702A      7.715439  
     703A      7.730008   704A      7.738605   705A      7.753474  
     706A      7.772724   707A      7.794193   708A      7.803838  
     709A      7.823360   710A      7.843861   711A      7.849149  
     712A      7.855091   713A      7.880321   714A      7.881276  
     715A      7.897550   716A      7.902048   717A      7.917230  
     718A      7.930917   719A      7.940525   720A      7.941848  
     721A      7.951603   722A      7.955916   723A      7.962850  
     724A      7.967273   725A      7.972548   726A      7.981487  
     727A      7.990509   728A      8.006720   729A      8.013624  
     730A      8.024850   731A      8.037871   732A      8.042900  
     733A      8.048544   734A      8.061714   735A      8.066839  
     736A      8.071858   737A      8.093333   738A      8.100699  
     739A      8.105448   740A      8.111306   741A      8.120517  
     742A      8.131809   743A      8.144109   744A      8.153091  
     745A      8.168406   746A      8.183618   747A      8.185458  
     748A      8.201576   749A      8.206136   750A      8.223775  
     751A      8.231793   752A      8.235752   753A      8.246125  
     754A      8.254774   755A      8.258657   756A      8.268568  
     757A      8.275896   758A      8.283735   759A      8.291037  
     760A      8.297803   761A      8.304052   762A      8.325319  
     763A      8.335805   764A      8.341612   765A      8.352920  
     766A      8.355476   767A      8.363963   768A      8.377873  
     769A      8.383317   770A      8.385391   771A      8.402626  
     772A      8.413560   773A      8.426610   774A      8.437728  
     775A      8.444238   776A      8.444436   777A      8.457988  
     778A      8.465085   779A      8.473560   780A      8.479471  
     781A      8.491978   782A      8.502677   783A      8.509972  
     784A      8.521867   785A      8.529369   786A      8.537971  
     787A      8.550837   788A      8.557302   789A      8.573076  
     790A      8.576544   791A      8.585911   792A      8.608864  
     793A      8.621393   794A      8.630663   795A      8.636662  
     796A      8.645485   797A      8.663661   798A      8.678532  
     799A      8.701949   800A      8.716244   801A      8.740088  
     802A      8.746708   803A      8.760030   804A      8.772085  
     805A      8.778940   806A      8.798371   807A      8.806135  
     808A      8.808699   809A      8.818357   810A      8.829314  
     811A      8.849097   812A      8.850592   813A      8.858479  
     814A      8.871922   815A      8.879263   816A      8.906876  
     817A      8.911457   818A      8.918302   819A      8.927926  
     820A      8.938616   821A      8.951176   822A      8.957615  
     823A      8.958964   824A      8.963439   825A      8.981837  
     826A      8.984309   827A      8.996878   828A      9.011750  
     829A      9.025214   830A      9.036601   831A      9.042753  
     832A      9.049796   833A      9.060656   834A      9.071458  
     835A      9.086337   836A      9.099506   837A      9.120537  
     838A      9.126745   839A      9.140603   840A      9.156401  
     841A      9.172226   842A      9.178965   843A      9.190914  
     844A      9.197206   845A      9.204217   846A      9.221729  
     847A      9.228387   848A      9.239428   849A      9.246938  
     850A      9.253002   851A      9.272038   852A      9.282659  
     853A      9.300437   854A      9.307729   855A      9.315108  
     856A      9.332908   857A      9.333589   858A      9.351070  
     859A      9.356002   860A      9.360064   861A      9.368839  
     862A      9.383683   863A      9.400249   864A      9.407746  
     865A      9.415139   866A      9.438754   867A      9.445773  
     868A      9.448679   869A      9.459072   870A      9.465441  
     871A      9.478000   872A      9.488617   873A      9.493865  
     874A      9.507408   875A      9.514994   876A      9.519155  
     877A      9.533663   878A      9.545634   879A      9.555049  
     880A      9.563892   881A      9.568677   882A      9.590084  
     883A      9.592735   884A      9.605587   885A      9.612696  
     886A      9.634235   887A      9.663569   888A      9.680615  
     889A      9.683683   890A      9.695609   891A      9.712361  
     892A      9.724806   893A      9.731200   894A      9.741650  
     895A      9.756297   896A      9.770012   897A      9.776599  
     898A      9.802485   899A      9.830595   900A      9.893427  
     901A     10.174659   902A     10.182155   903A     10.208131  
     904A     10.220510   905A     10.230705   906A     10.240008  
     907A     10.241697   908A     10.257291   909A     10.274568  
     910A     10.286138   911A     10.328213   912A     10.380604  
     913A     10.397692   914A     10.405486   915A     10.476704  
     916A     10.491205   917A     10.512897   918A     10.525503  
     919A     10.553702   920A     10.561302   921A     10.573142  
     922A     10.596481   923A     10.597074   924A     10.631465  
     925A     10.635138   926A     10.658064   927A     10.672909  
     928A     10.676471   929A     10.689719   930A     10.695663  
     931A     10.714297   932A     10.727332   933A     10.738683  
     934A     10.746624   935A     10.754405   936A     10.757082  
     937A     10.784004   938A     10.798622   939A     10.816747  
     940A     10.821843   941A     10.846340   942A     10.876660  
     943A     10.878752   944A     10.882577   945A     10.897873  
     946A     10.905089   947A     10.912276   948A     10.937169  
     949A     10.992408   950A     11.031933   951A     11.042259  
     952A     11.051490   953A     11.122773   954A     11.125772  
     955A     11.762438   956A     11.778370   957A     11.996909  
     958A     12.132350   959A     12.216983   960A     12.311748  
     961A     12.441569   962A     12.580920   963A     12.799585  
     964A     12.877815   965A     12.894902   966A     12.940324  
     967A     12.940739   968A     12.970237   969A     13.001305  
     970A     13.019363   971A     13.058135   972A     13.085552  
     973A     26.614051   974A     26.708889   975A     26.743782  
     976A     26.783439   977A     26.911667   978A     27.152510  
     979A     27.320947   980A     27.390263  

    Final Occupation by Irrep:
              A 
    DOCC [    33 ]

  Energy converged.

  @DF-RHF Final Energy:  -313.56423309013735

   => Energetics <=

    Nuclear Repulsion Energy =            380.6414809552136376
    One-Electron Energy =               -1176.4839004732987178
    Two-Electron Energy =                 482.2781864279479578
    DFT Exchange-Correlation Energy =       0.0000000000000000
    Empirical Dispersion Energy =           0.0000000000000000
    PCM Polarization Energy =               0.0000000000000000
    EFP Energy =                            0.0000000000000000
    Total Energy =                       -313.5642330901371224


  Saving occupied orbitals to File 180.

*** tstop() called on wr40 at Thu Sep 22 07:16:58 2016
Module time:
	user time   =     584.94 seconds =       9.75 minutes
	system time =       7.19 seconds =       0.12 minutes
	total time  =         59 seconds =       0.98 minutes
Total time:
	user time   =     781.82 seconds =      13.03 minutes
	system time =      12.66 seconds =       0.21 minutes
	total time  =         82 seconds =       1.37 minutes


Properties will be evaluated at   0.000000,   0.000000,   0.000000 Bohr

Properties computed using the SCF density matrix

  Nuclear Dipole Moment: (a.u.)
     X:     0.4759      Y:    -1.2535      Z:    -0.1675

  Electronic Dipole Moment: (a.u.)
     X:    -0.4908      Y:     1.2864      Z:     0.1723

  Dipole Moment: (a.u.)
     X:    -0.0150      Y:     0.0330      Z:     0.0047     Total:     0.0365

  Dipole Moment: (Debye)
     X:    -0.0381      Y:     0.0838      Z:     0.0121     Total:     0.0929


  //>>>>>>>>>>>>>>>>>>>>>>>>>>>>>>>>>>>//
  //               DFMP2               //
  //<<<<<<<<<<<<<<<<<<<<<<<<<<<<<<<<<<<//


*** tstart() called on wr40
*** at Thu Sep 22 07:16:58 2016


*** tstop() called on wr40 at Thu Sep 22 07:16:58 2016
Module time:
	user time   =       3.36 seconds =       0.06 minutes
	system time =       0.10 seconds =       0.00 minutes
	total time  =          0 seconds =       0.00 minutes
Total time:
	user time   =     785.85 seconds =      13.10 minutes
	system time =      12.78 seconds =       0.21 minutes
	total time  =         82 seconds =       1.37 minutes
	 --------------------------------------------------------
	                          DF-MP2                         
	      2nd-Order Density-Fitted Moller-Plesset Theory     
	              RMP2 Wavefunction,  12 Threads             
	                                                         
	        Rob Parrish, Justin Turney, Andy Simmonett,      
	           Ed Hohenstein, and C. David Sherrill          
	 --------------------------------------------------------

   => Auxiliary Basis Set <=

  Basis Set: 
    Number of shells: 510
    Number of basis function: 2046
    Number of Cartesian functions: 2708
    Spherical Harmonics?: true
    Max angular momentum: 5

	 --------------------------------------------------------
	                 NBF =   980, NAUX =  2046
	 --------------------------------------------------------
	   CLASS    FOCC     OCC    AOCC    AVIR     VIR    FVIR
	   PAIRS       8      33      25     947     947       0
	 --------------------------------------------------------

	-----------------------------------------------------------
	 ==================> DF-MP2 Energies <==================== 
	-----------------------------------------------------------
	 Reference Energy          =    -313.5642330901373498 [Eh]
	 Singles Energy            =      -0.0000000000037412 [Eh]
	 Same-Spin Energy          =      -0.3214548651240079 [Eh]
	 Opposite-Spin Energy      =      -1.1810941118207576 [Eh]
	 Correlation Energy        =      -1.5025489769485068 [Eh]
	 Total Energy              =    -315.0667820670858532 [Eh]
	-----------------------------------------------------------
	 ================> DF-SCS-MP2 Energies <================== 
	-----------------------------------------------------------
	 SCS Same-Spin Scale       =       0.3333333333333333 [-]
	 SCS Opposite-Spin Scale   =       1.2000000000000000 [-]
	 SCS Same-Spin Energy      =      -0.1071516217080026 [Eh]
	 SCS Opposite-Spin Energy  =      -1.4173129341849091 [Eh]
	 SCS Correlation Energy    =      -1.5244645558966530 [Eh]
	 SCS Total Energy          =    -315.0886976460340065 [Eh]
	-----------------------------------------------------------


  //>>>>>>>>>>>>>>>>>>>>>>>>>>>>>>>>>>>//
  //    CBS Results: custom function   //
  //<<<<<<<<<<<<<<<<<<<<<<<<<<<<<<<<<<<//


   ==> Helgaker 2-point SCF extrapolation for method: HF <==

   LO-zeta (3) Energy:               -313.544436158892
   HI-zeta (4) Energy:               -313.564233090137
   Alpha (exponent) Value:             1.630000000000
   Beta (coefficient) Value:           3.273435609124

   @Extrapolated HF/(T,Q):          -313.569057051053



   ==> Helgaker 2-point correlated extrapolation for method: MP2 <==

   LO-zeta (3) Energy:               -314.960872647958
   HI-zeta (4) Energy:               -315.066782067086
   Extrapolated Energy:              -315.144067318882

   @Extrapolated MP2/(T,Q):          -315.144067318882



   ==> Helgaker 2-point correlated extrapolation for method: HF <==

   LO-zeta (3) Energy:               -313.544436158892
   HI-zeta (4) Energy:               -313.564233090137
   Extrapolated Energy:              -313.578679499424

   @Extrapolated HF/(T,Q):           -313.578679499424


   ==> Components <==

  ---------------------------------------------------------------------------------------------------------
                          Method / Basis                      Rqd      Energy [Eh]   Variable
  ---------------------------------------------------------------------------------------------------------
                             mp2 / cc-pvtz                      *    -314.96087265   MP2 TOTAL ENERGY
                              hf / cc-pvtz                      *    -313.54443616   HF TOTAL ENERGY
                             mp2 / cc-pvqz                      *    -315.06678207   MP2 TOTAL ENERGY
                              hf / cc-pvqz                      *    -313.56423309   HF TOTAL ENERGY
  ---------------------------------------------------------------------------------------------------------

   ==> Stages <==

  ---------------------------------------------------------------------------------------------------------
      Stage               Method / Basis                       Wt      Energy [Eh]   Scheme
  ---------------------------------------------------------------------------------------------------------
        scf                   hf / cc-pv[tq]z                   1    -313.56905705   scf_xtpl_helgaker_2
       corl                  mp2 / cc-pv[tq]z                   1    -315.14406732   corl_xtpl_helgaker_2
       corl                   hf / cc-pv[tq]z                  -1    -313.57867950   corl_xtpl_helgaker_2
  ---------------------------------------------------------------------------------------------------------

   ==> CBS <==

  ---------------------------------------------------------------------------------------------------------
      Stage               Method / Basis                               Energy [Eh]   Scheme
  ---------------------------------------------------------------------------------------------------------
        scf                   hf / cc-pv[tq]z                        -313.56905705   scf_xtpl_helgaker_2
       corl                  mp2 / cc-pv[tq]z                          -1.56538782   corl_xtpl_helgaker_2
      total                  CBS                                     -315.13444487   
  ---------------------------------------------------------------------------------------------------------

*** Psi4 exiting successfully. Buy a developer a beer!
