    -----------------------------------------------------------------------
          Psi4: An Open-Source Ab Initio Electronic Structure Package
                              Psi4 1.0.0 Driver

                          Git: Rev {master} 6a9a71b dirty

    J. M. Turney, A. C. Simmonett, R. M. Parrish, E. G. Hohenstein,
    F. A. Evangelista, J. T. Fermann, B. J. Mintz, L. A. Burns, J. J. Wilke,
    M. L. Abrams, N. J. Russ, M. L. Leininger, C. L. Janssen, E. T. Seidl,
    W. D. Allen, H. F. Schaefer, R. A. King, E. F. Valeev, C. D. Sherrill,
    and T. D. Crawford, WIREs Comput. Mol. Sci. 2, 556-565 (2012)
    (doi: 10.1002/wcms.93)

                         Additional Contributions by
    A. E. DePrince, U. Bozkaya, A. Yu. Sokolov, D. G. A. Smith, R. Di Remigio,
    R. M. Richard, J. F. Gonthier, H. R. McAlexander, M. Saitow, and
    B. P. Pritchard
    -----------------------------------------------------------------------


    Psi4 started on: Thu Sep 22 07:15:35 2016

    Process ID:  34977
    PSI4DATADIR: /usr/local/hpc5/psi4conda/share/psi4
    Memory level set to 256.000 MB

  ==> Input File <==

--------------------------------------------------------------------------
memory 60 Gb

molecule molecule_01_psi {
0 1
    C            4.453195629309    -0.267480458757    -0.000091896544
    H            5.330931402329     0.378294856259    -0.000116044329
    H            4.508280058514    -0.908592965948    -0.880741764502
    H            4.508316467356    -0.908576568711     0.880567648400
    C           -4.453196354276     0.267476132037     0.000094392207
    H           -4.508320381209     0.908570813892    -0.880565851794
    H           -4.508280885987     0.908589541557     0.880743480025
    H           -5.330930294018    -0.378301619528     0.000120944504
    C            3.160479588410     0.539038763698    -0.000072669676
    H            3.132822973176     1.192920499631    -0.875746358400
    H            3.132859203751     1.192936829309     0.875589993077
    C           -3.160478114308    -0.539039694901     0.000073955086
    H           -3.132818214346    -1.192920133352     0.875748465808
    H           -3.132857372887    -1.192938567053    -0.875588003376
    C            1.921224008678    -0.347023124161    -0.000038820847
    H            1.946615411549    -1.002461320543     0.876524048456
    H            1.946578695015    -1.002477065812    -0.876590961687
    C            0.619287870282     0.443473725199    -0.000018676406
    H            0.594305823613     1.098628105992    -0.876633433146
    H            0.594343456144     1.098645382945     0.876584259115
    C           -0.619287740533    -0.443470111053     0.000016655147
    H           -0.594343303963    -1.098641696970    -0.876586379367
    H           -0.594305585351    -1.098624442877     0.876631539430
    C           -1.921224822770     0.347025281548     0.000036871873
    H           -1.946579735074     1.002480612904     0.876587750003
    H           -1.946618490071     1.002461622852    -0.876527079917
}

set globals {
  reference rhf
  freeze_core true
}
energy(cbs, corl_wfn='mp2', corl_basis='cc-pv[tq]z', scf_basis='cc-pv[tq]z', corl_scheme=corl_xtpl_helgaker_2, scf_scheme=scf_xtpl_helgaker_2)
--------------------------------------------------------------------------
/usr/local/hpc5/psi4conda/lib/python2.7/site-packages/v2rdm_casscf/v2rdm_casscf.so loaded.

  Memory set to  60.000 GiB by Python script.

  //>>>>>>>>>>>>>>>>>>>>>>>>>>>>>>>>>>>//
  //     CBS Setup: custom function    //
  //<<<<<<<<<<<<<<<<<<<<<<<<<<<<<<<<<<<//

    Naive listing of computations required.
             hf / cc-pvtz                  for  HF TOTAL ENERGY
             hf / cc-pvqz                  for  HF TOTAL ENERGY
            mp2 / cc-pvtz                  for  MP2 TOTAL ENERGY
            mp2 / cc-pvqz                  for  MP2 TOTAL ENERGY
             hf / cc-pvtz                  for  HF TOTAL ENERGY
             hf / cc-pvqz                  for  HF TOTAL ENERGY

    Enlightened listing of computations required.
            mp2 / cc-pvtz                  for  MP2 TOTAL ENERGY
            mp2 / cc-pvqz                  for  MP2 TOTAL ENERGY

    Full listing of computations to be obtained (required and bonus).
            mp2 / cc-pvtz                  for  MP2 TOTAL ENERGY
             hf / cc-pvtz                  for  HF TOTAL ENERGY
            mp2 / cc-pvqz                  for  MP2 TOTAL ENERGY
             hf / cc-pvqz                  for  HF TOTAL ENERGY

  //>>>>>>>>>>>>>>>>>>>>>>>>>>>>>>>>>>>//
  //   CBS Computation: MP2 / CC-PVTZ  //
  //<<<<<<<<<<<<<<<<<<<<<<<<<<<<<<<<<<<//

    SCF Algorithm Type (re)set to DF.

*** tstart() called on wr42
*** at Thu Sep 22 07:15:36 2016


         ---------------------------------------------------------
                                   SCF
            by Justin Turney, Rob Parrish, and Andy Simmonett
                              RHF Reference
                       12 Threads,  60000 MiB Core
         ---------------------------------------------------------

  ==> Geometry <==

    Molecular point group: c1
    Full point group: C1

    Geometry (in Angstrom), charge = 0, multiplicity = 1:

       Center              X                  Y                   Z               Mass       
    ------------   -----------------  -----------------  -----------------  -----------------
           C          4.453195629309    -0.267480458757    -0.000091896544    12.000000000000
           H          5.330931402329     0.378294856259    -0.000116044329     1.007825032070
           H          4.508280058514    -0.908592965948    -0.880741764502     1.007825032070
           H          4.508316467356    -0.908576568711     0.880567648400     1.007825032070
           C         -4.453196354276     0.267476132037     0.000094392207    12.000000000000
           H         -4.508320381209     0.908570813892    -0.880565851794     1.007825032070
           H         -4.508280885987     0.908589541557     0.880743480025     1.007825032070
           H         -5.330930294018    -0.378301619528     0.000120944504     1.007825032070
           C          3.160479588410     0.539038763698    -0.000072669676    12.000000000000
           H          3.132822973176     1.192920499631    -0.875746358400     1.007825032070
           H          3.132859203751     1.192936829309     0.875589993077     1.007825032070
           C         -3.160478114308    -0.539039694901     0.000073955086    12.000000000000
           H         -3.132818214346    -1.192920133352     0.875748465808     1.007825032070
           H         -3.132857372887    -1.192938567053    -0.875588003376     1.007825032070
           C          1.921224008678    -0.347023124161    -0.000038820847    12.000000000000
           H          1.946615411549    -1.002461320543     0.876524048456     1.007825032070
           H          1.946578695015    -1.002477065812    -0.876590961687     1.007825032070
           C          0.619287870282     0.443473725199    -0.000018676406    12.000000000000
           H          0.594305823613     1.098628105992    -0.876633433146     1.007825032070
           H          0.594343456144     1.098645382945     0.876584259115     1.007825032070
           C         -0.619287740533    -0.443470111053     0.000016655147    12.000000000000
           H         -0.594343303963    -1.098641696970    -0.876586379367     1.007825032070
           H         -0.594305585351    -1.098624442877     0.876631539430     1.007825032070
           C         -1.921224822770     0.347025281548     0.000036871873    12.000000000000
           H         -1.946579735074     1.002480612904     0.876587750003     1.007825032070
           H         -1.946618490071     1.002461622852    -0.876527079917     1.007825032070

  Running in c1 symmetry.

  Rotational constants: A =      0.35880  B =      0.01651  C =      0.01615 [cm^-1]
  Rotational constants: A =  10756.41509  B =    494.81134  C =    484.30449 [MHz]
  Nuclear repulsion =  376.097330561596777

  Charge       = 0
  Multiplicity = 1
  Electrons    = 66
  Nalpha       = 33
  Nbeta        = 33

  ==> Algorithm <==

  SCF Algorithm Type is DF.
  DIIS enabled.
  MOM disabled.
  Fractional occupation disabled.
  Guess Type is SAD.
  Energy threshold   = 1.00e-08
  Density threshold  = 1.00e-08
  Integral threshold = 0.00e+00

  ==> Primary Basis <==

  Basis Set: CC-PVTZ
    Number of shells: 188
    Number of basis function: 492
    Number of Cartesian functions: 550
    Spherical Harmonics?: true
    Max angular momentum: 3

  ==> Pre-Iterations <==

   -------------------------------------------------------
    Irrep   Nso     Nmo     Nalpha   Nbeta   Ndocc  Nsocc
   -------------------------------------------------------
     A        492     492       0       0       0       0
   -------------------------------------------------------
    Total     492     492      33      33      33       0
   -------------------------------------------------------

  ==> Integral Setup <==

  ==> DFJK: Density-Fitted J/K Matrices <==

    J tasked:                  Yes
    K tasked:                  Yes
    wK tasked:                  No
    OpenMP threads:             12
    Integrals threads:          12
    Memory (MB):             42915
    Algorithm:                Core
    Integral Cache:           NONE
    Schwarz Cutoff:          1E-12
    Fitting Condition:       1E-12

   => Auxiliary Basis Set <=

  Basis Set: 
    Number of shells: 380
    Number of basis function: 1172
    Number of Cartesian functions: 1398
    Spherical Harmonics?: true
    Max angular momentum: 4

  Minimum eigenvalue in the overlap matrix is 2.2540116780E-04.
  Using Symmetric Orthogonalization.
  SCF Guess: Superposition of Atomic Densities via on-the-fly atomic UHF.

  ==> Iterations <==

                           Total Energy        Delta E     RMS |[F,P]|

   @DF-RHF iter   0:  -317.85165182525282   -3.17852e+02   1.17461e-02 
   @DF-RHF iter   1:  -313.36475888465850    4.48689e+00   9.84408e-04 
   @DF-RHF iter   2:  -313.52521910085466   -1.60460e-01   3.63909e-04 DIIS
   @DF-RHF iter   3:  -313.54345540985628   -1.82363e-02   1.14577e-04 DIIS
   @DF-RHF iter   4:  -313.54627413173819   -2.81872e-03   1.77731e-05 DIIS
   @DF-RHF iter   5:  -313.54636263593102   -8.85042e-05   4.85822e-06 DIIS
   @DF-RHF iter   6:  -313.54636780885164   -5.17292e-06   1.24649e-06 DIIS
   @DF-RHF iter   7:  -313.54636815009746   -3.41246e-07   2.56780e-07 DIIS
   @DF-RHF iter   8:  -313.54636816541881   -1.53213e-08   5.55131e-08 DIIS
   @DF-RHF iter   9:  -313.54636816609286   -6.74049e-10   1.83577e-08 DIIS
   @DF-RHF iter  10:  -313.54636816615653   -6.36646e-11   4.64611e-09 DIIS

  ==> Post-Iterations <==

    Orbital Energies (a.u.)
    -----------------------

    Doubly Occupied:                                                      

       1A    -11.212430     2A    -11.212430     3A    -11.210497  
       4A    -11.210203     5A    -11.209820     6A    -11.209485  
       7A    -11.206949     8A    -11.206949     9A     -1.092918  
      10A     -1.062713    11A     -1.013629    12A     -0.949630  
      13A     -0.877409    14A     -0.811864    15A     -0.785004  
      16A     -0.782137    17A     -0.657715    18A     -0.631242  
      19A     -0.596867    20A     -0.591053    21A     -0.573125  
      22A     -0.567326    23A     -0.544586    24A     -0.531518  
      25A     -0.501918    26A     -0.494244    27A     -0.492723  
      28A     -0.472405    29A     -0.467138    30A     -0.459222  
      31A     -0.457505    32A     -0.456367    33A     -0.427046  

    Virtual:                                                              

      34A      0.141809    35A      0.148276    36A      0.163336  
      37A      0.163984    38A      0.164740    39A      0.187579  
      40A      0.191388    41A      0.193917    42A      0.222085  
      43A      0.222138    44A      0.229487    45A      0.232985  
      46A      0.240891    47A      0.256822    48A      0.259525  
      49A      0.262503    50A      0.298411    51A      0.299490  
      52A      0.313410    53A      0.314922    54A      0.333616  
      55A      0.338446    56A      0.363096    57A      0.370052  
      58A      0.380623    59A      0.394056    60A      0.399645  
      61A      0.417172    62A      0.441193    63A      0.463744  
      64A      0.471875    65A      0.474388    66A      0.480744  
      67A      0.507303    68A      0.510615    69A      0.514567  
      70A      0.526235    71A      0.531364    72A      0.532712  
      73A      0.556428    74A      0.569220    75A      0.575076  
      76A      0.584306    77A      0.609286    78A      0.623918  
      79A      0.626486    80A      0.643139    81A      0.643866  
      82A      0.647932    83A      0.649866    84A      0.654633  
      85A      0.658722    86A      0.659554    87A      0.672617  
      88A      0.677374    89A      0.681134    90A      0.683230  
      91A      0.684323    92A      0.684383    93A      0.697867  
      94A      0.706557    95A      0.718063    96A      0.736609  
      97A      0.752086    98A      0.756903    99A      0.777942  
     100A      0.781054   101A      0.824613   102A      0.848030  
     103A      0.876104   104A      0.887308   105A      0.887860  
     106A      0.889770   107A      0.890608   108A      0.933315  
     109A      0.938810   110A      0.944607   111A      0.965384  
     112A      0.972441   113A      0.991052   114A      0.998662  
     115A      1.005530   116A      1.010784   117A      1.023606  
     118A      1.025946   119A      1.059991   120A      1.070618  
     121A      1.072833   122A      1.099098   123A      1.118925  
     124A      1.131551   125A      1.148604   126A      1.162371  
     127A      1.166806   128A      1.185290   129A      1.221740  
     130A      1.234741   131A      1.239352   132A      1.247069  
     133A      1.257540   134A      1.259382   135A      1.276645  
     136A      1.281104   137A      1.281331   138A      1.301137  
     139A      1.307477   140A      1.317552   141A      1.322798  
     142A      1.330577   143A      1.336115   144A      1.347447  
     145A      1.352863   146A      1.369531   147A      1.373504  
     148A      1.382957   149A      1.392694   150A      1.401541  
     151A      1.415475   152A      1.424538   153A      1.427555  
     154A      1.429176   155A      1.432303   156A      1.438284  
     157A      1.438939   158A      1.467370   159A      1.488323  
     160A      1.490939   161A      1.500154   162A      1.507986  
     163A      1.511138   164A      1.522021   165A      1.541026  
     166A      1.563879   167A      1.566368   168A      1.587095  
     169A      1.587789   170A      1.591727   171A      1.596780  
     172A      1.615320   173A      1.620542   174A      1.625166  
     175A      1.628058   176A      1.629848   177A      1.652852  
     178A      1.666918   179A      1.678777   180A      1.712137  
     181A      1.723928   182A      1.739016   183A      1.744085  
     184A      1.751269   185A      1.758006   186A      1.783655  
     187A      1.791683   188A      1.793546   189A      1.807942  
     190A      1.816101   191A      1.839567   192A      1.846352  
     193A      1.856274   194A      1.864180   195A      1.887662  
     196A      1.903275   197A      1.913306   198A      1.923920  
     199A      1.931263   200A      1.989430   201A      2.038934  
     202A      2.091277   203A      2.513422   204A      2.552512  
     205A      2.571162   206A      2.575655   207A      2.595857  
     208A      2.647449   209A      2.654579   210A      2.666737  
     211A      2.676149   212A      2.695933   213A      2.713209  
     214A      2.720734   215A      2.734650   216A      2.745012  
     217A      2.768317   218A      2.776936   219A      2.785175  
     220A      2.796054   221A      2.810119   222A      2.820216  
     223A      2.834335   224A      2.844091   225A      2.853402  
     226A      2.862958   227A      2.897549   228A      2.904639  
     229A      2.924894   230A      2.926638   231A      2.933030  
     232A      2.953121   233A      2.955241   234A      2.963801  
     235A      2.966679   236A      2.989968   237A      3.001584  
     238A      3.015935   239A      3.032568   240A      3.046213  
     241A      3.054068   242A      3.064492   243A      3.076170  
     244A      3.086431   245A      3.114036   246A      3.114104  
     247A      3.129274   248A      3.137801   249A      3.140414  
     250A      3.168137   251A      3.183249   252A      3.193636  
     253A      3.207791   254A      3.242421   255A      3.251247  
     256A      3.264130   257A      3.268534   258A      3.302878  
     259A      3.310477   260A      3.315638   261A      3.334559  
     262A      3.337103   263A      3.346880   264A      3.355459  
     265A      3.376505   266A      3.378365   267A      3.389775  
     268A      3.395532   269A      3.396027   270A      3.407887  
     271A      3.409869   272A      3.416285   273A      3.418896  
     274A      3.423663   275A      3.436353   276A      3.443511  
     277A      3.447551   278A      3.448228   279A      3.449598  
     280A      3.454950   281A      3.463994   282A      3.467027  
     283A      3.478934   284A      3.491304   285A      3.534898  
     286A      3.540809   287A      3.542810   288A      3.547860  
     289A      3.549986   290A      3.553051   291A      3.573833  
     292A      3.577315   293A      3.581813   294A      3.588344  
     295A      3.588652   296A      3.592368   297A      3.631868  
     298A      3.635104   299A      3.649443   300A      3.665356  
     301A      3.679727   302A      3.719577   303A      3.729474  
     304A      3.771379   305A      3.772878   306A      3.772976  
     307A      3.776644   308A      3.792907   309A      3.816030  
     310A      3.841046   311A      3.845224   312A      3.854690  
     313A      3.859945   314A      3.862617   315A      3.875922  
     316A      3.885287   317A      3.894798   318A      3.915189  
     319A      3.917679   320A      3.930909   321A      3.943530  
     322A      3.953776   323A      3.957294   324A      3.971951  
     325A      4.004962   326A      4.005641   327A      4.034830  
     328A      4.069267   329A      4.072124   330A      4.074178  
     331A      4.075052   332A      4.087519   333A      4.090370  
     334A      4.106616   335A      4.122013   336A      4.125992  
     337A      4.132919   338A      4.142476   339A      4.168028  
     340A      4.176985   341A      4.177975   342A      4.178704  
     343A      4.190323   344A      4.203070   345A      4.203193  
     346A      4.210816   347A      4.216510   348A      4.227228  
     349A      4.257133   350A      4.267315   351A      4.275640  
     352A      4.288161   353A      4.295811   354A      4.297035  
     355A      4.322251   356A      4.330223   357A      4.331202  
     358A      4.342145   359A      4.344550   360A      4.363931  
     361A      4.366894   362A      4.377299   363A      4.384366  
     364A      4.392989   365A      4.393910   366A      4.417055  
     367A      4.429351   368A      4.432496   369A      4.439101  
     370A      4.444149   371A      4.455222   372A      4.458829  
     373A      4.469152   374A      4.497158   375A      4.516060  
     376A      4.525537   377A      4.540370   378A      4.546634  
     379A      4.548111   380A      4.556556   381A      4.581996  
     382A      4.593347   383A      4.615446   384A      4.621539  
     385A      4.629194   386A      4.633743   387A      4.643203  
     388A      4.652268   389A      4.655396   390A      4.659596  
     391A      4.668971   392A      4.694372   393A      4.711831  
     394A      4.718733   395A      4.725613   396A      4.757552  
     397A      4.767394   398A      4.791320   399A      4.797396  
     400A      4.807111   401A      4.812363   402A      4.837422  
     403A      4.863231   404A      4.924334   405A      4.967410  
     406A      4.971606   407A      4.982734   408A      4.999198  
     409A      5.025726   410A      5.046978   411A      5.055251  
     412A      5.079215   413A      5.086961   414A      5.109483  
     415A      5.147442   416A      5.156912   417A      5.181814  
     418A      5.197295   419A      5.202153   420A      5.207445  
     421A      5.236416   422A      5.237570   423A      5.244959  
     424A      5.245219   425A      5.253142   426A      5.256474  
     427A      5.257422   428A      5.294055   429A      5.315245  
     430A      5.324486   431A      5.342262   432A      5.345769  
     433A      5.350652   434A      5.361483   435A      5.366458  
     436A      5.407763   437A      5.450765   438A      5.471994  
     439A      5.482471   440A      5.486526   441A      5.507840  
     442A      5.541659   443A      5.583115   444A      5.615696  
     445A      5.619486   446A      5.641311   447A      5.641514  
     448A      5.655423   449A      5.717548   450A      5.727526  
     451A      5.733347   452A      5.736630   453A      5.750578  
     454A      5.780644   455A      5.789006   456A      5.830663  
     457A      5.831701   458A      5.855197   459A      5.857285  
     460A      5.865406   461A      5.882903   462A      5.895171  
     463A      5.908247   464A      5.921200   465A      5.923691  
     466A      5.923696   467A      5.955499   468A      5.966158  
     469A      5.972115   470A      6.000465   471A      6.047361  
     472A      6.058274   473A      6.127701   474A      6.132654  
     475A      6.247791   476A      6.302765   477A      6.324383  
     478A      6.324846   479A      6.325649   480A      6.369931  
     481A      6.418729   482A      6.427624   483A      6.459504  
     484A      6.538536   485A     13.032017   486A     13.364166  
     487A     13.433737   488A     13.457307   489A     13.808565  
     490A     14.058505   491A     14.183973   492A     14.195734  

    Final Occupation by Irrep:
              A 
    DOCC [    33 ]

  Energy converged.

  @DF-RHF Final Energy:  -313.54636816615653

   => Energetics <=

    Nuclear Repulsion Energy =            376.0973305615967774
    One-Electron Energy =               -1167.3352722008528417
    Two-Electron Energy =                 477.6915734730995382
    DFT Exchange-Correlation Energy =       0.0000000000000000
    Empirical Dispersion Energy =           0.0000000000000000
    PCM Polarization Energy =               0.0000000000000000
    EFP Energy =                            0.0000000000000000
    Total Energy =                       -313.5463681661565261


  Saving occupied orbitals to File 180.

*** tstop() called on wr42 at Thu Sep 22 07:15:49 2016
Module time:
	user time   =     126.60 seconds =       2.11 minutes
	system time =       2.58 seconds =       0.04 minutes
	total time  =         13 seconds =       0.22 minutes
Total time:
	user time   =     126.60 seconds =       2.11 minutes
	system time =       2.58 seconds =       0.04 minutes
	total time  =         13 seconds =       0.22 minutes


Properties will be evaluated at   0.000000,   0.000000,   0.000000 Bohr

Properties computed using the SCF density matrix

  Nuclear Dipole Moment: (a.u.)
     X:    -0.0000      Y:    -0.0000      Z:     0.0000

  Electronic Dipole Moment: (a.u.)
     X:     0.0000      Y:     0.0000      Z:    -0.0000

  Dipole Moment: (a.u.)
     X:    -0.0000      Y:     0.0000      Z:    -0.0000     Total:     0.0000

  Dipole Moment: (Debye)
     X:    -0.0000      Y:     0.0000      Z:    -0.0000     Total:     0.0000


  //>>>>>>>>>>>>>>>>>>>>>>>>>>>>>>>>>>>//
  //               DFMP2               //
  //<<<<<<<<<<<<<<<<<<<<<<<<<<<<<<<<<<<//


*** tstart() called on wr42
*** at Thu Sep 22 07:15:50 2016


*** tstop() called on wr42 at Thu Sep 22 07:15:50 2016
Module time:
	user time   =       2.74 seconds =       0.05 minutes
	system time =       0.06 seconds =       0.00 minutes
	total time  =          0 seconds =       0.00 minutes
Total time:
	user time   =     130.08 seconds =       2.17 minutes
	system time =       2.64 seconds =       0.04 minutes
	total time  =         14 seconds =       0.23 minutes
	 --------------------------------------------------------
	                          DF-MP2                         
	      2nd-Order Density-Fitted Moller-Plesset Theory     
	              RMP2 Wavefunction,  12 Threads             
	                                                         
	        Rob Parrish, Justin Turney, Andy Simmonett,      
	           Ed Hohenstein, and C. David Sherrill          
	 --------------------------------------------------------

   => Auxiliary Basis Set <=

  Basis Set: 
    Number of shells: 364
    Number of basis function: 1188
    Number of Cartesian functions: 1438
    Spherical Harmonics?: true
    Max angular momentum: 4

	 --------------------------------------------------------
	                 NBF =   492, NAUX =  1188
	 --------------------------------------------------------
	   CLASS    FOCC     OCC    AOCC    AVIR     VIR    FVIR
	   PAIRS       8      33      25     459     459       0
	 --------------------------------------------------------

	-----------------------------------------------------------
	 ==================> DF-MP2 Energies <==================== 
	-----------------------------------------------------------
	 Reference Energy          =    -313.5463681661565261 [Eh]
	 Singles Energy            =      -0.0000000000005552 [Eh]
	 Same-Spin Energy          =      -0.3107436438634382 [Eh]
	 Opposite-Spin Energy      =      -1.1045708561543335 [Eh]
	 Correlation Energy        =      -1.4153145000183267 [Eh]
	 Total Energy              =    -314.9616826661748519 [Eh]
	-----------------------------------------------------------
	 ================> DF-SCS-MP2 Energies <================== 
	-----------------------------------------------------------
	 SCS Same-Spin Scale       =       0.3333333333333333 [-]
	 SCS Opposite-Spin Scale   =       1.2000000000000000 [-]
	 SCS Same-Spin Energy      =      -0.1035812146211461 [Eh]
	 SCS Opposite-Spin Energy  =      -1.3254850273852001 [Eh]
	 SCS Correlation Energy    =      -1.4290662420069014 [Eh]
	 SCS Total Energy          =    -314.9754344081634372 [Eh]
	-----------------------------------------------------------


  //>>>>>>>>>>>>>>>>>>>>>>>>>>>>>>>>>>>//
  //   CBS Computation: MP2 / CC-PVQZ  //
  //<<<<<<<<<<<<<<<<<<<<<<<<<<<<<<<<<<<//

    SCF Algorithm Type (re)set to DF.

*** tstart() called on wr42
*** at Thu Sep 22 07:16:00 2016


         ---------------------------------------------------------
                                   SCF
            by Justin Turney, Rob Parrish, and Andy Simmonett
                              RHF Reference
                       12 Threads,  60000 MiB Core
         ---------------------------------------------------------

  ==> Geometry <==

    Molecular point group: c1
    Full point group: C1

    Geometry (in Angstrom), charge = 0, multiplicity = 1:

       Center              X                  Y                   Z               Mass       
    ------------   -----------------  -----------------  -----------------  -----------------
           C          4.453195629309    -0.267480458757    -0.000091896544    12.000000000000
           H          5.330931402329     0.378294856259    -0.000116044329     1.007825032070
           H          4.508280058514    -0.908592965948    -0.880741764502     1.007825032070
           H          4.508316467356    -0.908576568711     0.880567648400     1.007825032070
           C         -4.453196354276     0.267476132037     0.000094392207    12.000000000000
           H         -4.508320381209     0.908570813892    -0.880565851794     1.007825032070
           H         -4.508280885987     0.908589541557     0.880743480025     1.007825032070
           H         -5.330930294018    -0.378301619528     0.000120944504     1.007825032070
           C          3.160479588410     0.539038763698    -0.000072669676    12.000000000000
           H          3.132822973176     1.192920499631    -0.875746358400     1.007825032070
           H          3.132859203751     1.192936829309     0.875589993077     1.007825032070
           C         -3.160478114308    -0.539039694901     0.000073955086    12.000000000000
           H         -3.132818214346    -1.192920133352     0.875748465808     1.007825032070
           H         -3.132857372887    -1.192938567053    -0.875588003376     1.007825032070
           C          1.921224008678    -0.347023124161    -0.000038820847    12.000000000000
           H          1.946615411549    -1.002461320543     0.876524048456     1.007825032070
           H          1.946578695015    -1.002477065812    -0.876590961687     1.007825032070
           C          0.619287870282     0.443473725199    -0.000018676406    12.000000000000
           H          0.594305823613     1.098628105992    -0.876633433146     1.007825032070
           H          0.594343456144     1.098645382945     0.876584259115     1.007825032070
           C         -0.619287740533    -0.443470111053     0.000016655147    12.000000000000
           H         -0.594343303963    -1.098641696970    -0.876586379367     1.007825032070
           H         -0.594305585351    -1.098624442877     0.876631539430     1.007825032070
           C         -1.921224822770     0.347025281548     0.000036871873    12.000000000000
           H         -1.946579735074     1.002480612904     0.876587750003     1.007825032070
           H         -1.946618490071     1.002461622852    -0.876527079917     1.007825032070

  Running in c1 symmetry.

  Rotational constants: A =      0.35880  B =      0.01651  C =      0.01615 [cm^-1]
  Rotational constants: A =  10756.41509  B =    494.81134  C =    484.30449 [MHz]
  Nuclear repulsion =  376.097330561596777

  Charge       = 0
  Multiplicity = 1
  Electrons    = 66
  Nalpha       = 33
  Nbeta        = 33

  ==> Algorithm <==

  SCF Algorithm Type is DF.
  DIIS enabled.
  MOM disabled.
  Fractional occupation disabled.
  Guess Type is SAD.
  Energy threshold   = 1.00e-08
  Density threshold  = 1.00e-08
  Integral threshold = 0.00e+00

  ==> Primary Basis <==

  Basis Set: CC-PVQZ
    Number of shells: 300
    Number of basis function: 980
    Number of Cartesian functions: 1190
    Spherical Harmonics?: true
    Max angular momentum: 4

  ==> Pre-Iterations <==

   -------------------------------------------------------
    Irrep   Nso     Nmo     Nalpha   Nbeta   Ndocc  Nsocc
   -------------------------------------------------------
     A        980     980       0       0       0       0
   -------------------------------------------------------
    Total     980     980      33      33      33       0
   -------------------------------------------------------

  ==> Integral Setup <==

  ==> DFJK: Density-Fitted J/K Matrices <==

    J tasked:                  Yes
    K tasked:                  Yes
    wK tasked:                  No
    OpenMP threads:             12
    Integrals threads:          12
    Memory (MB):             42915
    Algorithm:                Core
    Integral Cache:           NONE
    Schwarz Cutoff:          1E-12
    Fitting Condition:       1E-12

   => Auxiliary Basis Set <=

  Basis Set: 
    Number of shells: 458
    Number of basis function: 1766
    Number of Cartesian functions: 2324
    Spherical Harmonics?: true
    Max angular momentum: 5

  Minimum eigenvalue in the overlap matrix is 4.4195226746E-05.
  Using Symmetric Orthogonalization.
  SCF Guess: Superposition of Atomic Densities via on-the-fly atomic UHF.

  ==> Iterations <==

                           Total Energy        Delta E     RMS |[F,P]|

   @DF-RHF iter   0:  -317.24715753330668   -3.17247e+02   5.77021e-03 
   @DF-RHF iter   1:  -313.38016044327355    3.86700e+00   4.55048e-04 
   @DF-RHF iter   2:  -313.54566688676232   -1.65506e-01   1.36631e-04 DIIS
   @DF-RHF iter   3:  -313.56546501122978   -1.97981e-02   2.76226e-05 DIIS
   @DF-RHF iter   4:  -313.56611914357768   -6.54132e-04   8.40517e-06 DIIS
   @DF-RHF iter   5:  -313.56618019057510   -6.10470e-05   1.51590e-06 DIIS
   @DF-RHF iter   6:  -313.56618239074794   -2.20017e-06   3.93438e-07 DIIS
   @DF-RHF iter   7:  -313.56618250867234   -1.17924e-07   1.05551e-07 DIIS
   @DF-RHF iter   8:  -313.56618251670864   -8.03630e-09   2.30718e-08 DIIS
   @DF-RHF iter   9:  -313.56618251714622   -4.37581e-10   4.95989e-09 DIIS

  ==> Post-Iterations <==

    Orbital Energies (a.u.)
    -----------------------

    Doubly Occupied:                                                      

       1A    -11.211326     2A    -11.211326     3A    -11.209386  
       4A    -11.209087     5A    -11.208703     6A    -11.208369  
       7A    -11.205959     8A    -11.205959     9A     -1.092596  
      10A     -1.062410    11A     -1.013350    12A     -0.949380  
      13A     -0.877198    14A     -0.811705    15A     -0.784923  
      16A     -0.782030    17A     -0.657766    18A     -0.631300  
      19A     -0.596931    20A     -0.591116    21A     -0.573211  
      22A     -0.567375    23A     -0.544659    24A     -0.531623  
      25A     -0.502030    26A     -0.494296    27A     -0.492835  
      28A     -0.472577    29A     -0.467231    30A     -0.459435  
      31A     -0.457730    32A     -0.456427    33A     -0.427077  

    Virtual:                                                              

      34A      0.113168    35A      0.120167    36A      0.135224  
      37A      0.137174    38A      0.138761    39A      0.156196  
      40A      0.163562    41A      0.165294    42A      0.182285  
      43A      0.188442    44A      0.198427    45A      0.202811  
      46A      0.206742    47A      0.222218    48A      0.228136  
      49A      0.229688    50A      0.239167    51A      0.256768  
      52A      0.261301    53A      0.271507    54A      0.278404  
      55A      0.284517    56A      0.305007    57A      0.317388  
      58A      0.322094    59A      0.330477    60A      0.333466  
      61A      0.335315    62A      0.366542    63A      0.385442  
      64A      0.386440    65A      0.389777    66A      0.393387  
      67A      0.412416    68A      0.417776    69A      0.422945  
      70A      0.423118    71A      0.428493    72A      0.440646  
      73A      0.455432    74A      0.459592    75A      0.460517  
      76A      0.473745    77A      0.476825    78A      0.489985  
      79A      0.515220    80A      0.516142    81A      0.519111  
      82A      0.524755    83A      0.527019    84A      0.533147  
      85A      0.533325    86A      0.536144    87A      0.543617  
      88A      0.543983    89A      0.544855    90A      0.550583  
      91A      0.555348    92A      0.565677    93A      0.567497  
      94A      0.594907    95A      0.597870    96A      0.615828  
      97A      0.632987    98A      0.643107    99A      0.660577  
     100A      0.679186   101A      0.685714   102A      0.696075  
     103A      0.699344   104A      0.701452   105A      0.744777  
     106A      0.749213   107A      0.756699   108A      0.767314  
     109A      0.770616   110A      0.779558   111A      0.780721  
     112A      0.803593   113A      0.804463   114A      0.812440  
     115A      0.814861   116A      0.830198   117A      0.836664  
     118A      0.842279   119A      0.845987   120A      0.863085  
     121A      0.863290   122A      0.867978   123A      0.886063  
     124A      0.891866   125A      0.903060   126A      0.906390  
     127A      0.916450   128A      0.944968   129A      0.945457  
     130A      0.949442   131A      0.956516   132A      0.957107  
     133A      0.957955   134A      0.976216   135A      0.977523  
     136A      0.980330   137A      0.993620   138A      0.998480  
     139A      1.000795   140A      1.003723   141A      1.017344  
     142A      1.024673   143A      1.031885   144A      1.045109  
     145A      1.051867   146A      1.058786   147A      1.064703  
     148A      1.068352   149A      1.076126   150A      1.083417  
     151A      1.086861   152A      1.108428   153A      1.109196  
     154A      1.119618   155A      1.124051   156A      1.128580  
     157A      1.142852   158A      1.143592   159A      1.147745  
     160A      1.151008   161A      1.152204   162A      1.157786  
     163A      1.158923   164A      1.169801   165A      1.170055  
     166A      1.179440   167A      1.190415   168A      1.193933  
     169A      1.195415   170A      1.199220   171A      1.201830  
     172A      1.212290   173A      1.215310   174A      1.217306  
     175A      1.225155   176A      1.227895   177A      1.229182  
     178A      1.229663   179A      1.234095   180A      1.234848  
     181A      1.261804   182A      1.285490   183A      1.289254  
     184A      1.299760   185A      1.319164   186A      1.333382  
     187A      1.335537   188A      1.362392   189A      1.383368  
     190A      1.383449   191A      1.393187   192A      1.397852  
     193A      1.400855   194A      1.424420   195A      1.435858  
     196A      1.458478   197A      1.463794   198A      1.482166  
     199A      1.487321   200A      1.496025   201A      1.522636  
     202A      1.558680   203A      1.649820   204A      1.664139  
     205A      1.676897   206A      1.685890   207A      1.698429  
     208A      1.706601   209A      1.737543   210A      1.745322  
     211A      1.761064   212A      1.766212   213A      1.775369  
     214A      1.792880   215A      1.794604   216A      1.803464  
     217A      1.831838   218A      1.832867   219A      1.868252  
     220A      1.871756   221A      1.872201   222A      1.875114  
     223A      1.899417   224A      1.908560   225A      1.947861  
     226A      1.952586   227A      1.964459   228A      1.990317  
     229A      1.997275   230A      2.015848   231A      2.020983  
     232A      2.035976   233A      2.036376   234A      2.040320  
     235A      2.043262   236A      2.050790   237A      2.055174  
     238A      2.068077   239A      2.069908   240A      2.083605  
     241A      2.085978   242A      2.096208   243A      2.104966  
     244A      2.119230   245A      2.119889   246A      2.126794  
     247A      2.127779   248A      2.143455   249A      2.146456  
     250A      2.150429   251A      2.158769   252A      2.177116  
     253A      2.188869   254A      2.189731   255A      2.198705  
     256A      2.198883   257A      2.203001   258A      2.215714  
     259A      2.216068   260A      2.224284   261A      2.228134  
     262A      2.247577   263A      2.248939   264A      2.253409  
     265A      2.260143   266A      2.265643   267A      2.266349  
     268A      2.279279   269A      2.282830   270A      2.287733  
     271A      2.294418   272A      2.295988   273A      2.314993  
     274A      2.319851   275A      2.323724   276A      2.324812  
     277A      2.328821   278A      2.347709   279A      2.354596  
     280A      2.360192   281A      2.363234   282A      2.365951  
     283A      2.384972   284A      2.391058   285A      2.392250  
     286A      2.393297   287A      2.398059   288A      2.404252  
     289A      2.409521   290A      2.418771   291A      2.422478  
     292A      2.450411   293A      2.455738   294A      2.483357  
     295A      2.488058   296A      2.488962   297A      2.501857  
     298A      2.514023   299A      2.528769   300A      2.533260  
     301A      2.537963   302A      2.546926   303A      2.550813  
     304A      2.562933   305A      2.575813   306A      2.596194  
     307A      2.622464   308A      2.623759   309A      2.624962  
     310A      2.640542   311A      2.653252   312A      2.661592  
     313A      2.664468   314A      2.674364   315A      2.682530  
     316A      2.700850   317A      2.706490   318A      2.731055  
     319A      2.736982   320A      2.737593   321A      2.762564  
     322A      2.765723   323A      2.770798   324A      2.775430  
     325A      2.783268   326A      2.797587   327A      2.802129  
     328A      2.808063   329A      2.814969   330A      2.816004  
     331A      2.816613   332A      2.832256   333A      2.834386  
     334A      2.834852   335A      2.845042   336A      2.849341  
     337A      2.855858   338A      2.861575   339A      2.867454  
     340A      2.873288   341A      2.887091   342A      2.889261  
     343A      2.905632   344A      2.905929   345A      2.916942  
     346A      2.919940   347A      2.927430   348A      2.929533  
     349A      2.954155   350A      2.957339   351A      2.973930  
     352A      2.988495   353A      2.993115   354A      2.995346  
     355A      2.999625   356A      3.012686   357A      3.030462  
     358A      3.047352   359A      3.066656   360A      3.069176  
     361A      3.075624   362A      3.096373   363A      3.102004  
     364A      3.108456   365A      3.111122   366A      3.124602  
     367A      3.128765   368A      3.137415   369A      3.154850  
     370A      3.165815   371A      3.168507   372A      3.193020  
     373A      3.198044   374A      3.207570   375A      3.211899  
     376A      3.227989   377A      3.233235   378A      3.253736  
     379A      3.274124   380A      3.287057   381A      3.292816  
     382A      3.297975   383A      3.312681   384A      3.327561  
     385A      3.337555   386A      3.340705   387A      3.363064  
     388A      3.376261   389A      3.376741   390A      3.386905  
     391A      3.387811   392A      3.401958   393A      3.413221  
     394A      3.421412   395A      3.422962   396A      3.426954  
     397A      3.435434   398A      3.451066   399A      3.455885  
     400A      3.464112   401A      3.467331   402A      3.471152  
     403A      3.473249   404A      3.478077   405A      3.479065  
     406A      3.479848   407A      3.486995   408A      3.514877  
     409A      3.529080   410A      3.529994   411A      3.545455  
     412A      3.553650   413A      3.575561   414A      3.579404  
     415A      3.586665   416A      3.594594   417A      3.597861  
     418A      3.617651   419A      3.646899   420A      3.652887  
     421A      3.676791   422A      3.687326   423A      3.701694  
     424A      3.746153   425A      3.771574   426A      3.780690  
     427A      3.790430   428A      3.801332   429A      3.814108  
     430A      3.838131   431A      3.838506   432A      3.844572  
     433A      3.858299   434A      3.858620   435A      3.874645  
     436A      3.889601   437A      3.900098   438A      3.910054  
     439A      3.927898   440A      3.939727   441A      3.951142  
     442A      3.957953   443A      3.971607   444A      3.974936  
     445A      3.975880   446A      3.977702   447A      3.993364  
     448A      4.025984   449A      4.031690   450A      4.037429  
     451A      4.042763   452A      4.068958   453A      4.092015  
     454A      4.102423   455A      4.132998   456A      4.138460  
     457A      4.163323   458A      4.165124   459A      4.184186  
     460A      4.201254   461A      4.204014   462A      4.205613  
     463A      4.208863   464A      4.214491   465A      4.219443  
     466A      4.219480   467A      4.236159   468A      4.241575  
     469A      4.253348   470A      4.261893   471A      4.272762  
     472A      4.291266   473A      4.292767   474A      4.296970  
     475A      4.314245   476A      4.319789   477A      4.356592  
     478A      4.366545   479A      4.369684   480A      4.394653  
     481A      4.399694   482A      4.414218   483A      4.416860  
     484A      4.440457   485A      4.452573   486A      4.491722  
     487A      4.500345   488A      4.538055   489A      4.555790  
     490A      4.587379   491A      4.626702   492A      4.636587  
     493A      5.260636   494A      5.288451   495A      5.390795  
     496A      5.421698   497A      5.471270   498A      5.499006  
     499A      5.513887   500A      5.524023   501A      5.587075  
     502A      5.601207   503A      5.611426   504A      5.655997  
     505A      5.663782   506A      5.680657   507A      5.705839  
     508A      5.706020   509A      5.740070   510A      5.742300  
     511A      5.742708   512A      5.747678   513A      5.766460  
     514A      5.769554   515A      5.778033   516A      5.782155  
     517A      5.785055   518A      5.787247   519A      5.804271  
     520A      5.809914   521A      5.825976   522A      5.846850  
     523A      5.853052   524A      5.866040   525A      5.867092  
     526A      5.878778   527A      5.903705   528A      5.904469  
     529A      5.909565   530A      5.917739   531A      5.948998  
     532A      5.969802   533A      6.009305   534A      6.048025  
     535A      6.050964   536A      6.065823   537A      6.093766  
     538A      6.096932   539A      6.098132   540A      6.101690  
     541A      6.133974   542A      6.137293   543A      6.149232  
     544A      6.164488   545A      6.165664   546A      6.168077  
     547A      6.170693   548A      6.185479   549A      6.196486  
     550A      6.214169   551A      6.215729   552A      6.218146  
     553A      6.220912   554A      6.235985   555A      6.243575  
     556A      6.249922   557A      6.253455   558A      6.267579  
     559A      6.268066   560A      6.273495   561A      6.291837  
     562A      6.294396   563A      6.295400   564A      6.306947  
     565A      6.329923   566A      6.343236   567A      6.345107  
     568A      6.360333   569A      6.363859   570A      6.373598  
     571A      6.378153   572A      6.383530   573A      6.388776  
     574A      6.389078   575A      6.401284   576A      6.405664  
     577A      6.415880   578A      6.433578   579A      6.440709  
     580A      6.440823   581A      6.449226   582A      6.460654  
     583A      6.470590   584A      6.491305   585A      6.491583  
     586A      6.506245   587A      6.512042   588A      6.515331  
     589A      6.520060   590A      6.520434   591A      6.531537  
     592A      6.550646   593A      6.551885   594A      6.556191  
     595A      6.572419   596A      6.572680   597A      6.576407  
     598A      6.585791   599A      6.596628   600A      6.605390  
     601A      6.606489   602A      6.619155   603A      6.623098  
     604A      6.624860   605A      6.632328   606A      6.649227  
     607A      6.652780   608A      6.655911   609A      6.657095  
     610A      6.659764   611A      6.670319   612A      6.692066  
     613A      6.696522   614A      6.701346   615A      6.705466  
     616A      6.707566   617A      6.711057   618A      6.730585  
     619A      6.753357   620A      6.756130   621A      6.759362  
     622A      6.768792   623A      6.778038   624A      6.790801  
     625A      6.793691   626A      6.807264   627A      6.810152  
     628A      6.817848   629A      6.841852   630A      6.847635  
     631A      6.849899   632A      6.852263   633A      6.871106  
     634A      6.874210   635A      6.890859   636A      6.898057  
     637A      6.902563   638A      6.926133   639A      6.929344  
     640A      6.931008   641A      6.931292   642A      6.936229  
     643A      6.969195   644A      6.971004   645A      6.976711  
     646A      6.992288   647A      7.029951   648A      7.032370  
     649A      7.032381   650A      7.037881   651A      7.044734  
     652A      7.048210   653A      7.057973   654A      7.073497  
     655A      7.098858   656A      7.103742   657A      7.107197  
     658A      7.142353   659A      7.144393   660A      7.165567  
     661A      7.188810   662A      7.210833   663A      7.225897  
     664A      7.226786   665A      7.237650   666A      7.249190  
     667A      7.266838   668A      7.272538   669A      7.277787  
     670A      7.302061   671A      7.308853   672A      7.314701  
     673A      7.334668   674A      7.348990   675A      7.351206  
     676A      7.358791   677A      7.362880   678A      7.384414  
     679A      7.408680   680A      7.412912   681A      7.416551  
     682A      7.430119   683A      7.452474   684A      7.459048  
     685A      7.459482   686A      7.470587   687A      7.484860  
     688A      7.494270   689A      7.515645   690A      7.516954  
     691A      7.525757   692A      7.530343   693A      7.547291  
     694A      7.597276   695A      7.599245   696A      7.662436  
     697A      7.666282   698A      7.676772   699A      7.689570  
     700A      7.694583   701A      7.696559   702A      7.710392  
     703A      7.726381   704A      7.749343   705A      7.757802  
     706A      7.758317   707A      7.765044   708A      7.772229  
     709A      7.804210   710A      7.860373   711A      7.880159  
     712A      7.880315   713A      7.888312   714A      7.889621  
     715A      7.892349   716A      7.909084   717A      7.912286  
     718A      7.931793   719A      7.940302   720A      7.944698  
     721A      7.948278   722A      7.955338   723A      7.961962  
     724A      7.969816   725A      7.978089   726A      7.991885  
     727A      8.001165   728A      8.007709   729A      8.009584  
     730A      8.023635   731A      8.031536   732A      8.032048  
     733A      8.046181   734A      8.063138   735A      8.064911  
     736A      8.094970   737A      8.097344   738A      8.105110  
     739A      8.107818   740A      8.113081   741A      8.118622  
     742A      8.136289   743A      8.156571   744A      8.167636  
     745A      8.176547   746A      8.181031   747A      8.191305  
     748A      8.193341   749A      8.197474   750A      8.214394  
     751A      8.230121   752A      8.235330   753A      8.246779  
     754A      8.261698   755A      8.265189   756A      8.268798  
     757A      8.271253   758A      8.277621   759A      8.284623  
     760A      8.293135   761A      8.295015   762A      8.328388  
     763A      8.329509   764A      8.337384   765A      8.344631  
     766A      8.352828   767A      8.359805   768A      8.360907  
     769A      8.370229   770A      8.395029   771A      8.405350  
     772A      8.414935   773A      8.431448   774A      8.432206  
     775A      8.443568   776A      8.462929   777A      8.464013  
     778A      8.477203   779A      8.484334   780A      8.484678  
     781A      8.491957   782A      8.493827   783A      8.496980  
     784A      8.516593   785A      8.520326   786A      8.520929  
     787A      8.525962   788A      8.554207   789A      8.571127  
     790A      8.572270   791A      8.584179   792A      8.587703  
     793A      8.594570   794A      8.615340   795A      8.627944  
     796A      8.643529   797A      8.666171   798A      8.678123  
     799A      8.688431   800A      8.734631   801A      8.736925  
     802A      8.762965   803A      8.764063   804A      8.767931  
     805A      8.781536   806A      8.794605   807A      8.810998  
     808A      8.813105   809A      8.816045   810A      8.828562  
     811A      8.850113   812A      8.857105   813A      8.859209  
     814A      8.880260   815A      8.885590   816A      8.908333  
     817A      8.911823   818A      8.916766   819A      8.922173  
     820A      8.938224   821A      8.941864   822A      8.953577  
     823A      8.960816   824A      8.962380   825A      8.965624  
     826A      8.970321   827A      9.000190   828A      9.013414  
     829A      9.021438   830A      9.036093   831A      9.046389  
     832A      9.053001   833A      9.069264   834A      9.072429  
     835A      9.079801   836A      9.117768   837A      9.122568  
     838A      9.123950   839A      9.133274   840A      9.147579  
     841A      9.152088   842A      9.174292   843A      9.187251  
     844A      9.192825   845A      9.200845   846A      9.222104  
     847A      9.224650   848A      9.226524   849A      9.232538  
     850A      9.241215   851A      9.263027   852A      9.263164  
     853A      9.278035   854A      9.319384   855A      9.325770  
     856A      9.335521   857A      9.337334   858A      9.342919  
     859A      9.356916   860A      9.362404   861A      9.366786  
     862A      9.387925   863A      9.395510   864A      9.395761  
     865A      9.433211   866A      9.436975   867A      9.448510  
     868A      9.453943   869A      9.456204   870A      9.463597  
     871A      9.480840   872A      9.498195   873A      9.498685  
     874A      9.504562   875A      9.508995   876A      9.521623  
     877A      9.533356   878A      9.545757   879A      9.555801  
     880A      9.559012   881A      9.585683   882A      9.592999  
     883A      9.600391   884A      9.615624   885A      9.656936  
     886A      9.666736   887A      9.682015   888A      9.682561  
     889A      9.686755   890A      9.698655   891A      9.706155  
     892A      9.728814   893A      9.734021   894A      9.735121  
     895A      9.744735   896A      9.759358   897A      9.763741  
     898A      9.783441   899A      9.815377   900A      9.908017  
     901A     10.169450   902A     10.175541   903A     10.200235  
     904A     10.203664   905A     10.221330   906A     10.240815  
     907A     10.241718   908A     10.246212   909A     10.278859  
     910A     10.282834   911A     10.318677   912A     10.369257  
     913A     10.386470   914A     10.386670   915A     10.462673  
     916A     10.483945   917A     10.530101   918A     10.534178  
     919A     10.561339   920A     10.564562   921A     10.568005  
     922A     10.577513   923A     10.620691   924A     10.630104  
     925A     10.639450   926A     10.646189   927A     10.670983  
     928A     10.679457   929A     10.681264   930A     10.714898  
     931A     10.729902   932A     10.730722   933A     10.737433  
     934A     10.743547   935A     10.748610   936A     10.751065  
     937A     10.791888   938A     10.794855   939A     10.810681  
     940A     10.826359   941A     10.848100   942A     10.860091  
     943A     10.877816   944A     10.877894   945A     10.886121  
     946A     10.909417   947A     10.913860   948A     10.919589  
     949A     10.996227   950A     11.017841   951A     11.038179  
     952A     11.039819   953A     11.120039   954A     11.124853  
     955A     11.760118   956A     11.762283   957A     11.981043  
     958A     12.099192   959A     12.194681   960A     12.309399  
     961A     12.452967   962A     12.581273   963A     12.779703  
     964A     12.828249   965A     12.886949   966A     12.931977  
     967A     12.939701   968A     12.940974   969A     12.973218  
     970A     13.016186   971A     13.055112   972A     13.077556  
     973A     26.610639   974A     26.709026   975A     26.759358  
     976A     26.770584   977A     26.904621   978A     27.131373  
     979A     27.334233   980A     27.411313  

    Final Occupation by Irrep:
              A 
    DOCC [    33 ]

  Energy converged.

  @DF-RHF Final Energy:  -313.56618251714622

   => Energetics <=

    Nuclear Repulsion Energy =            376.0973305615967774
    One-Electron Energy =               -1167.3923647086085111
    Two-Electron Energy =                 477.7288516298649483
    DFT Exchange-Correlation Energy =       0.0000000000000000
    Empirical Dispersion Energy =           0.0000000000000000
    PCM Polarization Energy =               0.0000000000000000
    EFP Energy =                            0.0000000000000000
    Total Energy =                       -313.5661825171467854


  Saving occupied orbitals to File 180.

*** tstop() called on wr42 at Thu Sep 22 07:17:03 2016
Module time:
	user time   =     609.28 seconds =      10.15 minutes
	system time =       7.59 seconds =       0.13 minutes
	total time  =         63 seconds =       1.05 minutes
Total time:
	user time   =     796.98 seconds =      13.28 minutes
	system time =      12.08 seconds =       0.20 minutes
	total time  =         87 seconds =       1.45 minutes


Properties will be evaluated at   0.000000,   0.000000,   0.000000 Bohr

Properties computed using the SCF density matrix

  Nuclear Dipole Moment: (a.u.)
     X:    -0.0000      Y:    -0.0000      Z:     0.0000

  Electronic Dipole Moment: (a.u.)
     X:     0.0000      Y:     0.0000      Z:    -0.0000

  Dipole Moment: (a.u.)
     X:    -0.0000      Y:     0.0000      Z:    -0.0000     Total:     0.0000

  Dipole Moment: (Debye)
     X:    -0.0000      Y:     0.0000      Z:    -0.0000     Total:     0.0000


  //>>>>>>>>>>>>>>>>>>>>>>>>>>>>>>>>>>>//
  //               DFMP2               //
  //<<<<<<<<<<<<<<<<<<<<<<<<<<<<<<<<<<<//


*** tstart() called on wr42
*** at Thu Sep 22 07:17:03 2016


*** tstop() called on wr42 at Thu Sep 22 07:17:03 2016
Module time:
	user time   =       3.67 seconds =       0.06 minutes
	system time =       0.10 seconds =       0.00 minutes
	total time  =          0 seconds =       0.00 minutes
Total time:
	user time   =     800.90 seconds =      13.35 minutes
	system time =      12.18 seconds =       0.20 minutes
	total time  =         87 seconds =       1.45 minutes
	 --------------------------------------------------------
	                          DF-MP2                         
	      2nd-Order Density-Fitted Moller-Plesset Theory     
	              RMP2 Wavefunction,  12 Threads             
	                                                         
	        Rob Parrish, Justin Turney, Andy Simmonett,      
	           Ed Hohenstein, and C. David Sherrill          
	 --------------------------------------------------------

   => Auxiliary Basis Set <=

  Basis Set: 
    Number of shells: 510
    Number of basis function: 2046
    Number of Cartesian functions: 2708
    Spherical Harmonics?: true
    Max angular momentum: 5

	 --------------------------------------------------------
	                 NBF =   980, NAUX =  2046
	 --------------------------------------------------------
	   CLASS    FOCC     OCC    AOCC    AVIR     VIR    FVIR
	   PAIRS       8      33      25     947     947       0
	 --------------------------------------------------------

	-----------------------------------------------------------
	 ==================> DF-MP2 Energies <==================== 
	-----------------------------------------------------------
	 Reference Energy          =    -313.5661825171462169 [Eh]
	 Singles Energy            =      -0.0000000000022837 [Eh]
	 Same-Spin Energy          =      -0.3209785739514788 [Eh]
	 Opposite-Spin Energy      =      -1.1804701439687242 [Eh]
	 Correlation Energy        =      -1.5014487179224867 [Eh]
	 Total Energy              =    -315.0676312350686885 [Eh]
	-----------------------------------------------------------
	 ================> DF-SCS-MP2 Energies <================== 
	-----------------------------------------------------------
	 SCS Same-Spin Scale       =       0.3333333333333333 [-]
	 SCS Opposite-Spin Scale   =       1.2000000000000000 [-]
	 SCS Same-Spin Energy      =      -0.1069928579838263 [Eh]
	 SCS Opposite-Spin Energy  =      -1.4165641727624689 [Eh]
	 SCS Correlation Energy    =      -1.5235570307485788 [Eh]
	 SCS Total Energy          =    -315.0897395478947942 [Eh]
	-----------------------------------------------------------


  //>>>>>>>>>>>>>>>>>>>>>>>>>>>>>>>>>>>//
  //    CBS Results: custom function   //
  //<<<<<<<<<<<<<<<<<<<<<<<<<<<<<<<<<<<//


   ==> Helgaker 2-point SCF extrapolation for method: HF <==

   LO-zeta (3) Energy:               -313.546368166157
   HI-zeta (4) Energy:               -313.566182517147
   Alpha (exponent) Value:             1.630000000000
   Beta (coefficient) Value:           3.276315975433

   @Extrapolated HF/(T,Q):          -313.571010722769



   ==> Helgaker 2-point correlated extrapolation for method: MP2 <==

   LO-zeta (3) Energy:               -314.961682666175
   HI-zeta (4) Energy:               -315.067631235069
   Extrapolated Energy:              -315.144945055613

   @Extrapolated MP2/(T,Q):          -315.144945055613



   ==> Helgaker 2-point correlated extrapolation for method: HF <==

   LO-zeta (3) Energy:               -313.546368166157
   HI-zeta (4) Energy:               -313.566182517147
   Extrapolated Energy:              -313.580641638140

   @Extrapolated HF/(T,Q):           -313.580641638140


   ==> Components <==

  ---------------------------------------------------------------------------------------------------------
                          Method / Basis                      Rqd      Energy [Eh]   Variable
  ---------------------------------------------------------------------------------------------------------
                             mp2 / cc-pvtz                      *    -314.96168267   MP2 TOTAL ENERGY
                              hf / cc-pvtz                      *    -313.54636817   HF TOTAL ENERGY
                             mp2 / cc-pvqz                      *    -315.06763124   MP2 TOTAL ENERGY
                              hf / cc-pvqz                      *    -313.56618252   HF TOTAL ENERGY
  ---------------------------------------------------------------------------------------------------------

   ==> Stages <==

  ---------------------------------------------------------------------------------------------------------
      Stage               Method / Basis                       Wt      Energy [Eh]   Scheme
  ---------------------------------------------------------------------------------------------------------
        scf                   hf / cc-pv[tq]z                   1    -313.57101072   scf_xtpl_helgaker_2
       corl                  mp2 / cc-pv[tq]z                   1    -315.14494506   corl_xtpl_helgaker_2
       corl                   hf / cc-pv[tq]z                  -1    -313.58064164   corl_xtpl_helgaker_2
  ---------------------------------------------------------------------------------------------------------

   ==> CBS <==

  ---------------------------------------------------------------------------------------------------------
      Stage               Method / Basis                               Energy [Eh]   Scheme
  ---------------------------------------------------------------------------------------------------------
        scf                   hf / cc-pv[tq]z                        -313.57101072   scf_xtpl_helgaker_2
       corl                  mp2 / cc-pv[tq]z                          -1.56430342   corl_xtpl_helgaker_2
      total                  CBS                                     -315.13531414   
  ---------------------------------------------------------------------------------------------------------

*** Psi4 exiting successfully. Buy a developer a beer!
