    -----------------------------------------------------------------------
          Psi4: An Open-Source Ab Initio Electronic Structure Package
                              Psi4 1.0.0 Driver

                          Git: Rev {master} 6a9a71b dirty

    J. M. Turney, A. C. Simmonett, R. M. Parrish, E. G. Hohenstein,
    F. A. Evangelista, J. T. Fermann, B. J. Mintz, L. A. Burns, J. J. Wilke,
    M. L. Abrams, N. J. Russ, M. L. Leininger, C. L. Janssen, E. T. Seidl,
    W. D. Allen, H. F. Schaefer, R. A. King, E. F. Valeev, C. D. Sherrill,
    and T. D. Crawford, WIREs Comput. Mol. Sci. 2, 556-565 (2012)
    (doi: 10.1002/wcms.93)

                         Additional Contributions by
    A. E. DePrince, U. Bozkaya, A. Yu. Sokolov, D. G. A. Smith, R. Di Remigio,
    R. M. Richard, J. F. Gonthier, H. R. McAlexander, M. Saitow, and
    B. P. Pritchard
    -----------------------------------------------------------------------


    Psi4 started on: Thu Sep 22 07:15:35 2016

    Process ID:  25197
    PSI4DATADIR: /usr/local/hpc5/psi4conda/share/psi4
    Memory level set to 256.000 MB

  ==> Input File <==

--------------------------------------------------------------------------
memory 60 Gb

molecule molecule_02_psi {
0 1
    C           -3.823673374369     0.256843488715    -1.130282884258
    H           -4.862723855855    -0.063557200642    -1.058005479069
    H           -3.414974884909    -0.137666921694    -2.061386310956
    H           -3.812269069852     1.345399415075    -1.198107089541
    C            3.823675000933    -0.256838184607    -1.130278687404
    H            4.862724385762     0.063565269196    -1.058000204289
    H            3.414976408371     0.137671165495    -2.061382291712
    H            3.812273666266    -1.345393939243    -1.198102943439
    C           -3.003613393828    -0.217875451176     0.062864756518
    H           -3.043619627413    -1.308517018970     0.128149281399
    H           -3.442179800455     0.163858565920     0.988647304128
    C            3.003612287155     0.217878179621     0.062868023607
    H            3.442178317941    -0.163854734741     0.988650788618
    H            3.043614915959     1.308519566776     0.128152701926
    C           -1.547339406513     0.222877390172    -0.018980813288
    H           -1.503044351756     1.316292179866    -0.069946897873
    H           -1.117746692096    -0.149354997056    -0.952756584249
    C           -0.718536307900    -0.257811071166     1.166627938901
    H           -0.708974620908    -1.352579382704     1.177973082426
    H           -1.213350184426     0.056841882033     2.090079607439
    C            0.718535170112     0.257804368458     1.166630056384
    H            0.708973206659     1.352572496994     1.177979193148
    H            1.213347708396    -0.056851772748     2.090081128386
    C            1.547339946343    -0.222879126605    -0.018979423110
    H            1.503048668967    -1.316293659176    -0.069947393620
    H            1.117746738871     0.149353926780    -0.952754396007
}

set globals {
  reference rhf
  freeze_core true
}
energy(cbs, corl_wfn='mp2', corl_basis='cc-pv[tq]z', scf_basis='cc-pv[tq]z', corl_scheme=corl_xtpl_helgaker_2, scf_scheme=scf_xtpl_helgaker_2)
--------------------------------------------------------------------------
/usr/local/hpc5/psi4conda/lib/python2.7/site-packages/v2rdm_casscf/v2rdm_casscf.so loaded.

  Memory set to  60.000 GiB by Python script.

  //>>>>>>>>>>>>>>>>>>>>>>>>>>>>>>>>>>>//
  //     CBS Setup: custom function    //
  //<<<<<<<<<<<<<<<<<<<<<<<<<<<<<<<<<<<//

    Naive listing of computations required.
             hf / cc-pvtz                  for  HF TOTAL ENERGY
             hf / cc-pvqz                  for  HF TOTAL ENERGY
            mp2 / cc-pvtz                  for  MP2 TOTAL ENERGY
            mp2 / cc-pvqz                  for  MP2 TOTAL ENERGY
             hf / cc-pvtz                  for  HF TOTAL ENERGY
             hf / cc-pvqz                  for  HF TOTAL ENERGY

    Enlightened listing of computations required.
            mp2 / cc-pvtz                  for  MP2 TOTAL ENERGY
            mp2 / cc-pvqz                  for  MP2 TOTAL ENERGY

    Full listing of computations to be obtained (required and bonus).
            mp2 / cc-pvtz                  for  MP2 TOTAL ENERGY
             hf / cc-pvtz                  for  HF TOTAL ENERGY
            mp2 / cc-pvqz                  for  MP2 TOTAL ENERGY
             hf / cc-pvqz                  for  HF TOTAL ENERGY

  //>>>>>>>>>>>>>>>>>>>>>>>>>>>>>>>>>>>//
  //   CBS Computation: MP2 / CC-PVTZ  //
  //<<<<<<<<<<<<<<<<<<<<<<<<<<<<<<<<<<<//

    SCF Algorithm Type (re)set to DF.

*** tstart() called on wr41
*** at Thu Sep 22 07:15:37 2016


         ---------------------------------------------------------
                                   SCF
            by Justin Turney, Rob Parrish, and Andy Simmonett
                              RHF Reference
                       12 Threads,  60000 MiB Core
         ---------------------------------------------------------

  ==> Geometry <==

    Molecular point group: c1
    Full point group: C1

    Geometry (in Angstrom), charge = 0, multiplicity = 1:

       Center              X                  Y                   Z               Mass       
    ------------   -----------------  -----------------  -----------------  -----------------
           C         -3.823673374369     0.256843488715    -1.130282884258    12.000000000000
           H         -4.862723855855    -0.063557200642    -1.058005479069     1.007825032070
           H         -3.414974884909    -0.137666921694    -2.061386310956     1.007825032070
           H         -3.812269069852     1.345399415075    -1.198107089541     1.007825032070
           C          3.823675000933    -0.256838184607    -1.130278687404    12.000000000000
           H          4.862724385762     0.063565269196    -1.058000204289     1.007825032070
           H          3.414976408371     0.137671165495    -2.061382291712     1.007825032070
           H          3.812273666266    -1.345393939243    -1.198102943439     1.007825032070
           C         -3.003613393828    -0.217875451176     0.062864756518    12.000000000000
           H         -3.043619627413    -1.308517018970     0.128149281399     1.007825032070
           H         -3.442179800455     0.163858565920     0.988647304128     1.007825032070
           C          3.003612287155     0.217878179621     0.062868023607    12.000000000000
           H          3.442178317941    -0.163854734741     0.988650788618     1.007825032070
           H          3.043614915959     1.308519566776     0.128152701926     1.007825032070
           C         -1.547339406513     0.222877390172    -0.018980813288    12.000000000000
           H         -1.503044351756     1.316292179866    -0.069946897873     1.007825032070
           H         -1.117746692096    -0.149354997056    -0.952756584249     1.007825032070
           C         -0.718536307900    -0.257811071166     1.166627938901    12.000000000000
           H         -0.708974620908    -1.352579382704     1.177973082426     1.007825032070
           H         -1.213350184426     0.056841882033     2.090079607439     1.007825032070
           C          0.718535170112     0.257804368458     1.166630056384    12.000000000000
           H          0.708973206659     1.352572496994     1.177979193148     1.007825032070
           H          1.213347708396    -0.056851772748     2.090081128386     1.007825032070
           C          1.547339946343    -0.222879126605    -0.018979423110    12.000000000000
           H          1.503048668967    -1.316293659176    -0.069947393620     1.007825032070
           H          1.117746738871     0.149353926780    -0.952754396007     1.007825032070

  Running in c1 symmetry.

  Rotational constants: A =      0.15022  B =      0.02078  C =      0.01906 [cm^-1]
  Rotational constants: A =   4503.40122  B =    622.94227  C =    571.54499 [MHz]
  Nuclear repulsion =  383.064062544524745

  Charge       = 0
  Multiplicity = 1
  Electrons    = 66
  Nalpha       = 33
  Nbeta        = 33

  ==> Algorithm <==

  SCF Algorithm Type is DF.
  DIIS enabled.
  MOM disabled.
  Fractional occupation disabled.
  Guess Type is SAD.
  Energy threshold   = 1.00e-08
  Density threshold  = 1.00e-08
  Integral threshold = 0.00e+00

  ==> Primary Basis <==

  Basis Set: CC-PVTZ
    Number of shells: 188
    Number of basis function: 492
    Number of Cartesian functions: 550
    Spherical Harmonics?: true
    Max angular momentum: 3

  ==> Pre-Iterations <==

   -------------------------------------------------------
    Irrep   Nso     Nmo     Nalpha   Nbeta   Ndocc  Nsocc
   -------------------------------------------------------
     A        492     492       0       0       0       0
   -------------------------------------------------------
    Total     492     492      33      33      33       0
   -------------------------------------------------------

  ==> Integral Setup <==

  ==> DFJK: Density-Fitted J/K Matrices <==

    J tasked:                  Yes
    K tasked:                  Yes
    wK tasked:                  No
    OpenMP threads:             12
    Integrals threads:          12
    Memory (MB):             42915
    Algorithm:                Core
    Integral Cache:           NONE
    Schwarz Cutoff:          1E-12
    Fitting Condition:       1E-12

   => Auxiliary Basis Set <=

  Basis Set: 
    Number of shells: 380
    Number of basis function: 1172
    Number of Cartesian functions: 1398
    Spherical Harmonics?: true
    Max angular momentum: 4

  Minimum eigenvalue in the overlap matrix is 2.6698696054E-04.
  Using Symmetric Orthogonalization.
  SCF Guess: Superposition of Atomic Densities via on-the-fly atomic UHF.

  ==> Iterations <==

                           Total Energy        Delta E     RMS |[F,P]|

   @DF-RHF iter   0:  -317.09795655160906   -3.17098e+02   1.11993e-02 
   @DF-RHF iter   1:  -313.32221452187207    3.77574e+00   1.03674e-03 
   @DF-RHF iter   2:  -313.52232047699590   -2.00106e-01   3.00857e-04 DIIS
   @DF-RHF iter   3:  -313.54176588483767   -1.94454e-02   1.11562e-04 DIIS
   @DF-RHF iter   4:  -313.54416148275459   -2.39560e-03   2.65298e-05 DIIS
   @DF-RHF iter   5:  -313.54432430725251   -1.62824e-04   5.82727e-06 DIIS
   @DF-RHF iter   6:  -313.54433277266321   -8.46541e-06   1.97720e-06 DIIS
   @DF-RHF iter   7:  -313.54433351833666   -7.45673e-07   3.21347e-07 DIIS
   @DF-RHF iter   8:  -313.54433354852438   -3.01877e-08   6.26562e-08 DIIS
   @DF-RHF iter   9:  -313.54433354962578   -1.10140e-09   1.78822e-08 DIIS
   @DF-RHF iter  10:  -313.54433354970490   -7.91260e-11   5.59449e-09 DIIS

  ==> Post-Iterations <==

    Orbital Energies (a.u.)
    -----------------------

    Doubly Occupied:                                                      

       1A    -11.212335     2A    -11.212335     3A    -11.210731  
       4A    -11.210185     5A    -11.209422     6A    -11.209354  
       7A    -11.206951     8A    -11.206951     9A     -1.093736  
      10A     -1.061388    11A     -1.012910    12A     -0.947001  
      13A     -0.882296    14A     -0.811480    15A     -0.795933  
      16A     -0.770104    17A     -0.648379    18A     -0.637212  
      19A     -0.597198    20A     -0.592281    21A     -0.569861  
      22A     -0.564171    23A     -0.552586    24A     -0.522863  
      25A     -0.522476    26A     -0.499139    27A     -0.483439  
      28A     -0.471695    29A     -0.468435    30A     -0.460184  
      31A     -0.454893    32A     -0.441497    33A     -0.433946  

    Virtual:                                                              

      34A      0.142794    35A      0.148894    36A      0.157706  
      37A      0.161726    38A      0.174010    39A      0.182169  
      40A      0.192549    41A      0.209388    42A      0.213340  
      43A      0.223521    44A      0.229524    45A      0.235688  
      46A      0.236362    47A      0.258795    48A      0.263560  
      49A      0.269804    50A      0.283505    51A      0.285033  
      52A      0.316611    53A      0.322257    54A      0.333325  
      55A      0.350458    56A      0.365230    57A      0.368597  
      58A      0.387284    59A      0.389173    60A      0.404950  
      61A      0.419090    62A      0.428786    63A      0.447926  
      64A      0.451375    65A      0.470105    66A      0.477698  
      67A      0.488364    68A      0.510212    69A      0.516808  
      70A      0.541328    71A      0.542884    72A      0.554236  
      73A      0.572236    74A      0.575046    75A      0.587180  
      76A      0.603729    77A      0.609264    78A      0.616922  
      79A      0.626432    80A      0.633245    81A      0.638440  
      82A      0.645704    83A      0.649654    84A      0.655809  
      85A      0.661105    86A      0.661692    87A      0.665354  
      88A      0.671353    89A      0.674924    90A      0.675664  
      91A      0.686475    92A      0.689939    93A      0.704471  
      94A      0.717884    95A      0.727228    96A      0.737516  
      97A      0.745378    98A      0.762876    99A      0.764737  
     100A      0.778816   101A      0.808120   102A      0.846965  
     103A      0.853736   104A      0.867609   105A      0.872291  
     106A      0.906340   107A      0.909300   108A      0.914696  
     109A      0.931103   110A      0.935669   111A      0.965811  
     112A      0.970507   113A      0.995146   114A      0.997790  
     115A      1.012111   116A      1.012691   117A      1.034588  
     118A      1.068492   119A      1.074120   120A      1.077887  
     121A      1.092766   122A      1.094923   123A      1.114027  
     124A      1.133178   125A      1.135884   126A      1.162475  
     127A      1.180884   128A      1.188801   129A      1.220228  
     130A      1.224588   131A      1.234101   132A      1.238382  
     133A      1.261925   134A      1.281062   135A      1.282755  
     136A      1.288586   137A      1.295627   138A      1.303312  
     139A      1.311429   140A      1.324833   141A      1.329598  
     142A      1.336819   143A      1.344307   144A      1.355761  
     145A      1.359693   146A      1.366088   147A      1.382755  
     148A      1.389114   149A      1.395423   150A      1.401032  
     151A      1.413488   152A      1.426561   153A      1.436951  
     154A      1.444357   155A      1.447175   156A      1.453242  
     157A      1.470186   158A      1.474518   159A      1.475611  
     160A      1.487734   161A      1.496145   162A      1.501224  
     163A      1.507289   164A      1.518373   165A      1.530900  
     166A      1.549485   167A      1.550609   168A      1.564778  
     169A      1.572519   170A      1.597636   171A      1.603158  
     172A      1.603441   173A      1.617678   174A      1.630661  
     175A      1.633621   176A      1.650473   177A      1.685401  
     178A      1.685851   179A      1.695381   180A      1.704071  
     181A      1.710588   182A      1.711757   183A      1.739579  
     184A      1.747835   185A      1.776515   186A      1.786785  
     187A      1.795264   188A      1.808593   189A      1.810339  
     190A      1.818750   191A      1.838499   192A      1.844908  
     193A      1.855382   194A      1.871179   195A      1.896587  
     196A      1.898440   197A      1.920241   198A      1.984881  
     199A      2.021634   200A      2.023708   201A      2.035552  
     202A      2.081317   203A      2.524362   204A      2.532593  
     205A      2.571747   206A      2.585595   207A      2.593206  
     208A      2.660323   209A      2.661858   210A      2.681260  
     211A      2.686538   212A      2.694129   213A      2.708240  
     214A      2.721907   215A      2.732297   216A      2.758910  
     217A      2.774760   218A      2.775655   219A      2.785377  
     220A      2.794910   221A      2.803019   222A      2.811650  
     223A      2.828150   224A      2.853471   225A      2.870329  
     226A      2.883218   227A      2.897271   228A      2.910616  
     229A      2.914742   230A      2.925874   231A      2.927061  
     232A      2.940965   233A      2.957953   234A      2.975383  
     235A      2.989452   236A      2.990707   237A      3.006619  
     238A      3.036502   239A      3.041295   240A      3.046045  
     241A      3.061798   242A      3.073890   243A      3.080936  
     244A      3.086861   245A      3.106312   246A      3.132349  
     247A      3.134700   248A      3.141397   249A      3.168360  
     250A      3.188842   251A      3.190623   252A      3.192666  
     253A      3.202930   254A      3.211747   255A      3.255844  
     256A      3.256725   257A      3.263213   258A      3.292744  
     259A      3.305218   260A      3.327659   261A      3.331779  
     262A      3.350217   263A      3.354541   264A      3.357066  
     265A      3.362470   266A      3.367500   267A      3.375890  
     268A      3.394365   269A      3.394432   270A      3.403403  
     271A      3.407206   272A      3.418510   273A      3.424269  
     274A      3.430421   275A      3.431710   276A      3.441414  
     277A      3.446610   278A      3.452049   279A      3.463734  
     280A      3.470316   281A      3.488922   282A      3.494461  
     283A      3.521100   284A      3.522379   285A      3.526450  
     286A      3.535495   287A      3.550258   288A      3.551783  
     289A      3.566339   290A      3.571003   291A      3.571284  
     292A      3.580694   293A      3.584668   294A      3.588490  
     295A      3.594511   296A      3.600900   297A      3.613409  
     298A      3.647376   299A      3.679892   300A      3.690734  
     301A      3.695753   302A      3.700293   303A      3.723910  
     304A      3.733192   305A      3.773218   306A      3.776583  
     307A      3.782697   308A      3.793824   309A      3.810061  
     310A      3.826823   311A      3.841803   312A      3.843661  
     313A      3.875800   314A      3.887319   315A      3.888342  
     316A      3.890090   317A      3.893027   318A      3.899143  
     319A      3.920534   320A      3.934555   321A      3.937469  
     322A      3.945068   323A      3.969285   324A      3.986388  
     325A      4.001716   326A      4.003399   327A      4.007283  
     328A      4.012530   329A      4.071656   330A      4.080955  
     331A      4.088605   332A      4.097734   333A      4.105909  
     334A      4.116369   335A      4.121646   336A      4.128134  
     337A      4.141681   338A      4.144362   339A      4.146802  
     340A      4.163039   341A      4.173118   342A      4.178897  
     343A      4.183628   344A      4.202109   345A      4.215491  
     346A      4.218988   347A      4.219597   348A      4.249756  
     349A      4.260424   350A      4.264653   351A      4.278098  
     352A      4.279105   353A      4.300967   354A      4.303620  
     355A      4.317625   356A      4.323225   357A      4.338886  
     358A      4.351394   359A      4.354261   360A      4.367157  
     361A      4.386353   362A      4.387357   363A      4.391798  
     364A      4.393912   365A      4.411875   366A      4.427313  
     367A      4.429148   368A      4.441409   369A      4.447558  
     370A      4.449275   371A      4.463476   372A      4.465836  
     373A      4.483209   374A      4.499210   375A      4.509724  
     376A      4.518577   377A      4.537875   378A      4.550212  
     379A      4.560456   380A      4.568526   381A      4.582019  
     382A      4.604973   383A      4.606537   384A      4.615821  
     385A      4.634144   386A      4.638136   387A      4.641244  
     388A      4.649670   389A      4.654686   390A      4.672398  
     391A      4.679303   392A      4.705683   393A      4.709941  
     394A      4.724669   395A      4.734341   396A      4.741875  
     397A      4.758310   398A      4.797494   399A      4.798044  
     400A      4.827922   401A      4.840419   402A      4.881263  
     403A      4.888396   404A      4.946093   405A      4.948084  
     406A      4.975706   407A      4.995667   408A      5.032373  
     409A      5.037619   410A      5.045912   411A      5.071409  
     412A      5.083646   413A      5.087793   414A      5.100976  
     415A      5.139361   416A      5.158795   417A      5.165715  
     418A      5.182345   419A      5.183231   420A      5.200297  
     421A      5.226118   422A      5.227448   423A      5.244864  
     424A      5.244878   425A      5.267739   426A      5.268381  
     427A      5.280386   428A      5.287501   429A      5.324076  
     430A      5.324763   431A      5.331793   432A      5.368535  
     433A      5.382281   434A      5.400547   435A      5.420628  
     436A      5.432097   437A      5.433555   438A      5.437864  
     439A      5.451429   440A      5.502132   441A      5.513283  
     442A      5.562375   443A      5.585019   444A      5.602799  
     445A      5.619356   446A      5.633807   447A      5.633873  
     448A      5.646331   449A      5.722460   450A      5.728038  
     451A      5.729623   452A      5.731678   453A      5.764870  
     454A      5.765764   455A      5.806615   456A      5.808594  
     457A      5.812981   458A      5.856190   459A      5.861742  
     460A      5.879166   461A      5.886158   462A      5.890790  
     463A      5.902413   464A      5.913744   465A      5.936601  
     466A      5.937186   467A      5.945563   468A      5.948853  
     469A      5.972309   470A      6.028472   471A      6.053001  
     472A      6.080396   473A      6.095329   474A      6.143766  
     475A      6.292495   476A      6.299907   477A      6.324264  
     478A      6.327033   479A      6.341272   480A      6.363427  
     481A      6.421679   482A      6.447477   483A      6.500243  
     484A      6.520412   485A     13.173444   486A     13.179004  
     487A     13.354773   488A     13.536442   489A     13.892177  
     490A     13.971956   491A     14.190780   492A     14.197033  

    Final Occupation by Irrep:
              A 
    DOCC [    33 ]

  Energy converged.

  @DF-RHF Final Energy:  -313.54433354970490

   => Energetics <=

    Nuclear Repulsion Energy =            383.0640625445247451
    One-Electron Energy =               -1181.2700520459725340
    Two-Electron Energy =                 484.6616559517429437
    DFT Exchange-Correlation Energy =       0.0000000000000000
    Empirical Dispersion Energy =           0.0000000000000000
    PCM Polarization Energy =               0.0000000000000000
    EFP Energy =                            0.0000000000000000
    Total Energy =                       -313.5443335497048452


  Saving occupied orbitals to File 180.

*** tstop() called on wr41 at Thu Sep 22 07:15:50 2016
Module time:
	user time   =     126.87 seconds =       2.11 minutes
	system time =       2.65 seconds =       0.04 minutes
	total time  =         13 seconds =       0.22 minutes
Total time:
	user time   =     126.87 seconds =       2.11 minutes
	system time =       2.65 seconds =       0.04 minutes
	total time  =         13 seconds =       0.22 minutes


Properties will be evaluated at   0.000000,   0.000000,   0.000000 Bohr

Properties computed using the SCF density matrix

  Nuclear Dipole Moment: (a.u.)
     X:     0.0000      Y:     0.0000      Z:    -1.7912

  Electronic Dipole Moment: (a.u.)
     X:    -0.0000      Y:    -0.0000      Z:     1.8275

  Dipole Moment: (a.u.)
     X:    -0.0000      Y:    -0.0000      Z:     0.0363     Total:     0.0363

  Dipole Moment: (Debye)
     X:    -0.0000      Y:    -0.0000      Z:     0.0924     Total:     0.0924


  //>>>>>>>>>>>>>>>>>>>>>>>>>>>>>>>>>>>//
  //               DFMP2               //
  //<<<<<<<<<<<<<<<<<<<<<<<<<<<<<<<<<<<//


*** tstart() called on wr41
*** at Thu Sep 22 07:15:50 2016


*** tstop() called on wr41 at Thu Sep 22 07:15:50 2016
Module time:
	user time   =       4.56 seconds =       0.08 minutes
	system time =       0.11 seconds =       0.00 minutes
	total time  =          0 seconds =       0.00 minutes
Total time:
	user time   =     132.24 seconds =       2.20 minutes
	system time =       2.79 seconds =       0.05 minutes
	total time  =         13 seconds =       0.22 minutes
	 --------------------------------------------------------
	                          DF-MP2                         
	      2nd-Order Density-Fitted Moller-Plesset Theory     
	              RMP2 Wavefunction,  12 Threads             
	                                                         
	        Rob Parrish, Justin Turney, Andy Simmonett,      
	           Ed Hohenstein, and C. David Sherrill          
	 --------------------------------------------------------

   => Auxiliary Basis Set <=

  Basis Set: 
    Number of shells: 364
    Number of basis function: 1188
    Number of Cartesian functions: 1438
    Spherical Harmonics?: true
    Max angular momentum: 4

	 --------------------------------------------------------
	                 NBF =   492, NAUX =  1188
	 --------------------------------------------------------
	   CLASS    FOCC     OCC    AOCC    AVIR     VIR    FVIR
	   PAIRS       8      33      25     459     459       0
	 --------------------------------------------------------

	-----------------------------------------------------------
	 ==================> DF-MP2 Energies <==================== 
	-----------------------------------------------------------
	 Reference Energy          =    -313.5443335497049020 [Eh]
	 Singles Energy            =      -0.0000000000004425 [Eh]
	 Same-Spin Energy          =      -0.3113177639553486 [Eh]
	 Opposite-Spin Energy      =      -1.1053251276213572 [Eh]
	 Correlation Energy        =      -1.4166428915771483 [Eh]
	 Total Energy              =    -314.9609764412820709 [Eh]
	-----------------------------------------------------------
	 ================> DF-SCS-MP2 Energies <================== 
	-----------------------------------------------------------
	 SCS Same-Spin Scale       =       0.3333333333333333 [-]
	 SCS Opposite-Spin Scale   =       1.2000000000000000 [-]
	 SCS Same-Spin Energy      =      -0.1037725879851162 [Eh]
	 SCS Opposite-Spin Energy  =      -1.3263901531456286 [Eh]
	 SCS Correlation Energy    =      -1.4301627411311872 [Eh]
	 SCS Total Energy          =    -314.9744962908361003 [Eh]
	-----------------------------------------------------------


  //>>>>>>>>>>>>>>>>>>>>>>>>>>>>>>>>>>>//
  //   CBS Computation: MP2 / CC-PVQZ  //
  //<<<<<<<<<<<<<<<<<<<<<<<<<<<<<<<<<<<//

    SCF Algorithm Type (re)set to DF.

*** tstart() called on wr41
*** at Thu Sep 22 07:16:00 2016


         ---------------------------------------------------------
                                   SCF
            by Justin Turney, Rob Parrish, and Andy Simmonett
                              RHF Reference
                       12 Threads,  60000 MiB Core
         ---------------------------------------------------------

  ==> Geometry <==

    Molecular point group: c1
    Full point group: C1

    Geometry (in Angstrom), charge = 0, multiplicity = 1:

       Center              X                  Y                   Z               Mass       
    ------------   -----------------  -----------------  -----------------  -----------------
           C         -3.823673374369     0.256843488715    -1.130282884258    12.000000000000
           H         -4.862723855855    -0.063557200642    -1.058005479069     1.007825032070
           H         -3.414974884909    -0.137666921694    -2.061386310956     1.007825032070
           H         -3.812269069852     1.345399415075    -1.198107089541     1.007825032070
           C          3.823675000933    -0.256838184607    -1.130278687404    12.000000000000
           H          4.862724385762     0.063565269196    -1.058000204289     1.007825032070
           H          3.414976408371     0.137671165495    -2.061382291712     1.007825032070
           H          3.812273666266    -1.345393939243    -1.198102943439     1.007825032070
           C         -3.003613393828    -0.217875451176     0.062864756518    12.000000000000
           H         -3.043619627413    -1.308517018970     0.128149281399     1.007825032070
           H         -3.442179800455     0.163858565920     0.988647304128     1.007825032070
           C          3.003612287155     0.217878179621     0.062868023607    12.000000000000
           H          3.442178317941    -0.163854734741     0.988650788618     1.007825032070
           H          3.043614915959     1.308519566776     0.128152701926     1.007825032070
           C         -1.547339406513     0.222877390172    -0.018980813288    12.000000000000
           H         -1.503044351756     1.316292179866    -0.069946897873     1.007825032070
           H         -1.117746692096    -0.149354997056    -0.952756584249     1.007825032070
           C         -0.718536307900    -0.257811071166     1.166627938901    12.000000000000
           H         -0.708974620908    -1.352579382704     1.177973082426     1.007825032070
           H         -1.213350184426     0.056841882033     2.090079607439     1.007825032070
           C          0.718535170112     0.257804368458     1.166630056384    12.000000000000
           H          0.708973206659     1.352572496994     1.177979193148     1.007825032070
           H          1.213347708396    -0.056851772748     2.090081128386     1.007825032070
           C          1.547339946343    -0.222879126605    -0.018979423110    12.000000000000
           H          1.503048668967    -1.316293659176    -0.069947393620     1.007825032070
           H          1.117746738871     0.149353926780    -0.952754396007     1.007825032070

  Running in c1 symmetry.

  Rotational constants: A =      0.15022  B =      0.02078  C =      0.01906 [cm^-1]
  Rotational constants: A =   4503.40122  B =    622.94227  C =    571.54499 [MHz]
  Nuclear repulsion =  383.064062544524745

  Charge       = 0
  Multiplicity = 1
  Electrons    = 66
  Nalpha       = 33
  Nbeta        = 33

  ==> Algorithm <==

  SCF Algorithm Type is DF.
  DIIS enabled.
  MOM disabled.
  Fractional occupation disabled.
  Guess Type is SAD.
  Energy threshold   = 1.00e-08
  Density threshold  = 1.00e-08
  Integral threshold = 0.00e+00

  ==> Primary Basis <==

  Basis Set: CC-PVQZ
    Number of shells: 300
    Number of basis function: 980
    Number of Cartesian functions: 1190
    Spherical Harmonics?: true
    Max angular momentum: 4

  ==> Pre-Iterations <==

   -------------------------------------------------------
    Irrep   Nso     Nmo     Nalpha   Nbeta   Ndocc  Nsocc
   -------------------------------------------------------
     A        980     980       0       0       0       0
   -------------------------------------------------------
    Total     980     980      33      33      33       0
   -------------------------------------------------------

  ==> Integral Setup <==

  ==> DFJK: Density-Fitted J/K Matrices <==

    J tasked:                  Yes
    K tasked:                  Yes
    wK tasked:                  No
    OpenMP threads:             12
    Integrals threads:          12
    Memory (MB):             42915
    Algorithm:                Core
    Integral Cache:           NONE
    Schwarz Cutoff:          1E-12
    Fitting Condition:       1E-12

   => Auxiliary Basis Set <=

  Basis Set: 
    Number of shells: 458
    Number of basis function: 1766
    Number of Cartesian functions: 2324
    Spherical Harmonics?: true
    Max angular momentum: 5

  Minimum eigenvalue in the overlap matrix is 4.6645280303E-05.
  Using Symmetric Orthogonalization.
  SCF Guess: Superposition of Atomic Densities via on-the-fly atomic UHF.

  ==> Iterations <==

                           Total Energy        Delta E     RMS |[F,P]|

   @DF-RHF iter   0:  -316.92039447774414   -3.16920e+02   5.62938e-03 
   @DF-RHF iter   1:  -313.31377136460640    3.60662e+00   5.77676e-04 
   @DF-RHF iter   2:  -313.53127384995719   -2.17502e-01   2.09218e-04 DIIS
   @DF-RHF iter   3:  -313.55875362770519   -2.74798e-02   8.11884e-05 DIIS
   @DF-RHF iter   4:  -313.56393439156807   -5.18076e-03   1.32947e-05 DIIS
   @DF-RHF iter   5:  -313.56411119234008   -1.76801e-04   3.95275e-06 DIIS
   @DF-RHF iter   6:  -313.56412396142707   -1.27691e-05   1.02598e-06 DIIS
   @DF-RHF iter   7:  -313.56412499036549   -1.02894e-06   1.84831e-07 DIIS
   @DF-RHF iter   8:  -313.56412502896922   -3.86037e-08   5.03059e-08 DIIS
   @DF-RHF iter   9:  -313.56412503125136   -2.28215e-09   1.57059e-08 DIIS
   @DF-RHF iter  10:  -313.56412503148283   -2.31466e-10   4.03504e-09 DIIS

  ==> Post-Iterations <==

    Orbital Energies (a.u.)
    -----------------------

    Doubly Occupied:                                                      

       1A    -11.211233     2A    -11.211233     3A    -11.209625  
       4A    -11.209075     5A    -11.208291     6A    -11.208225  
       7A    -11.205963     8A    -11.205963     9A     -1.093418  
      10A     -1.061086    11A     -1.012637    12A     -0.946755  
      13A     -0.882093    14A     -0.811323    15A     -0.795838  
      16A     -0.770023    17A     -0.648427    18A     -0.637277  
      19A     -0.597265    20A     -0.592349    21A     -0.569913  
      22A     -0.564254    23A     -0.552675    24A     -0.522954  
      25A     -0.522576    26A     -0.499247    27A     -0.483562  
      28A     -0.471871    29A     -0.468536    30A     -0.460351  
      31A     -0.455071    32A     -0.441603    33A     -0.434002  

    Virtual:                                                              

      34A      0.113676    35A      0.121068    36A      0.129765  
      37A      0.133340    38A      0.146322    39A      0.153121  
      40A      0.163677    41A      0.176810    42A      0.178461  
      43A      0.187032    44A      0.195776    45A      0.201043  
      46A      0.207035    47A      0.223542    48A      0.226714  
      49A      0.228832    50A      0.246562    51A      0.250842  
      52A      0.264354    53A      0.271678    54A      0.274482  
      55A      0.290113    56A      0.312548    57A      0.313703  
      58A      0.320222    59A      0.321097    60A      0.330316  
      61A      0.345877    62A      0.358062    63A      0.365996  
      64A      0.383597    65A      0.389960    66A      0.411269  
      67A      0.414643    68A      0.420605    69A      0.433466  
      70A      0.439320    71A      0.443827    72A      0.448421  
      73A      0.454484    74A      0.456984    75A      0.462604  
      76A      0.473594    77A      0.479262    78A      0.496815  
      79A      0.508954    80A      0.512652    81A      0.517667  
      82A      0.522369    83A      0.530345    84A      0.531020  
      85A      0.532627    86A      0.538887    87A      0.541022  
      88A      0.543805    89A      0.545576    90A      0.553736  
      91A      0.558327    92A      0.560791    93A      0.587270  
      94A      0.595994    95A      0.598936    96A      0.621703  
      97A      0.624091    98A      0.638457    99A      0.640797  
     100A      0.653890   101A      0.691107   102A      0.695945  
     103A      0.707234   104A      0.722037   105A      0.733631  
     106A      0.739123   107A      0.743921   108A      0.757901  
     109A      0.762216   110A      0.786048   111A      0.792484  
     112A      0.795818   113A      0.815494   114A      0.821902  
     115A      0.831049   116A      0.833327   117A      0.835803  
     118A      0.848704   119A      0.855898   120A      0.861213  
     121A      0.865097   122A      0.885797   123A      0.892458  
     124A      0.901321   125A      0.903804   126A      0.911952  
     127A      0.934437   128A      0.940629   129A      0.943661  
     130A      0.944229   131A      0.954405   132A      0.954559  
     133A      0.961802   134A      0.977759   135A      0.983499  
     136A      0.984908   137A      0.999575   138A      1.003992  
     139A      1.009300   140A      1.014677   141A      1.015132  
     142A      1.034597   143A      1.041591   144A      1.042675  
     145A      1.046586   146A      1.062521   147A      1.069570  
     148A      1.075256   149A      1.082181   150A      1.085128  
     151A      1.091650   152A      1.102988   153A      1.105787  
     154A      1.117700   155A      1.130806   156A      1.139154  
     157A      1.143393   158A      1.147547   159A      1.150117  
     160A      1.155981   161A      1.156008   162A      1.160389  
     163A      1.163025   164A      1.173301   165A      1.176709  
     166A      1.181667   167A      1.186507   168A      1.195829  
     169A      1.205899   170A      1.209439   171A      1.213520  
     172A      1.214917   173A      1.220120   174A      1.232416  
     175A      1.236502   176A      1.236943   177A      1.245747  
     178A      1.250149   179A      1.259608   180A      1.272279  
     181A      1.278541   182A      1.286210   183A      1.301028  
     184A      1.308636   185A      1.313918   186A      1.324083  
     187A      1.349103   188A      1.352495   189A      1.363417  
     190A      1.388506   191A      1.389677   192A      1.415239  
     193A      1.423232   194A      1.438999   195A      1.456027  
     196A      1.459638   197A      1.467200   198A      1.491801  
     199A      1.498054   200A      1.512881   201A      1.540431  
     202A      1.605855   203A      1.653440   204A      1.671017  
     205A      1.679755   206A      1.697568   207A      1.703255  
     208A      1.723147   209A      1.731673   210A      1.736483  
     211A      1.739052   212A      1.753442   213A      1.785294  
     214A      1.789761   215A      1.802831   216A      1.811825  
     217A      1.827072   218A      1.839488   219A      1.854453  
     220A      1.875904   221A      1.885444   222A      1.912050  
     223A      1.917615   224A      1.927212   225A      1.941241  
     226A      1.970695   227A      1.978242   228A      1.982533  
     229A      2.002645   230A      2.006464   231A      2.024373  
     232A      2.026148   233A      2.030815   234A      2.035330  
     235A      2.054456   236A      2.057684   237A      2.061869  
     238A      2.072824   239A      2.082245   240A      2.090417  
     241A      2.091372   242A      2.099867   243A      2.101908  
     244A      2.107409   245A      2.113705   246A      2.128612  
     247A      2.138289   248A      2.147543   249A      2.149727  
     250A      2.158020   251A      2.166758   252A      2.169862  
     253A      2.172920   254A      2.190066   255A      2.203832  
     256A      2.204789   257A      2.212731   258A      2.216008  
     259A      2.218117   260A      2.223590   261A      2.232656  
     262A      2.244745   263A      2.246789   264A      2.256572  
     265A      2.260970   266A      2.263091   267A      2.285687  
     268A      2.288410   269A      2.291767   270A      2.295938  
     271A      2.299324   272A      2.316251   273A      2.320417  
     274A      2.329332   275A      2.329801   276A      2.343135  
     277A      2.346466   278A      2.347801   279A      2.352177  
     280A      2.372115   281A      2.375906   282A      2.376802  
     283A      2.389245   284A      2.393955   285A      2.397503  
     286A      2.401710   287A      2.410132   288A      2.414764  
     289A      2.423790   290A      2.438212   291A      2.443807  
     292A      2.465168   293A      2.471605   294A      2.484193  
     295A      2.491955   296A      2.503209   297A      2.517794  
     298A      2.521137   299A      2.532596   300A      2.538029  
     301A      2.538923   302A      2.545882   303A      2.567830  
     304A      2.570426   305A      2.585326   306A      2.597664  
     307A      2.609747   308A      2.617367   309A      2.629811  
     310A      2.642144   311A      2.645715   312A      2.657244  
     313A      2.669370   314A      2.684142   315A      2.684442  
     316A      2.701402   317A      2.702905   318A      2.715233  
     319A      2.744884   320A      2.747924   321A      2.763300  
     322A      2.764111   323A      2.769987   324A      2.782259  
     325A      2.783274   326A      2.800708   327A      2.805639  
     328A      2.810567   329A      2.813000   330A      2.825353  
     331A      2.827236   332A      2.832502   333A      2.838178  
     334A      2.842044   335A      2.853061   336A      2.855613  
     337A      2.861130   338A      2.877061   339A      2.877811  
     340A      2.883839   341A      2.884946   342A      2.908425  
     343A      2.921048   344A      2.923899   345A      2.926379  
     346A      2.935668   347A      2.939118   348A      2.951888  
     349A      2.954637   350A      2.959709   351A      2.972397  
     352A      2.986275   353A      2.996598   354A      3.009388  
     355A      3.017374   356A      3.031970   357A      3.035937  
     358A      3.040684   359A      3.063270   360A      3.087853  
     361A      3.088223   362A      3.099232   363A      3.101953  
     364A      3.107596   365A      3.131674   366A      3.133667  
     367A      3.147087   368A      3.152157   369A      3.164935  
     370A      3.176598   371A      3.185857   372A      3.186194  
     373A      3.211390   374A      3.211643   375A      3.215101  
     376A      3.240517   377A      3.244727   378A      3.254184  
     379A      3.263278   380A      3.269306   381A      3.298441  
     382A      3.302254   383A      3.310080   384A      3.318972  
     385A      3.335206   386A      3.347926   387A      3.351971  
     388A      3.365349   389A      3.368788   390A      3.380436  
     391A      3.386537   392A      3.398889   393A      3.409447  
     394A      3.414707   395A      3.432365   396A      3.436081  
     397A      3.441855   398A      3.445921   399A      3.453796  
     400A      3.456615   401A      3.468873   402A      3.471466  
     403A      3.481750   404A      3.485573   405A      3.486596  
     406A      3.504271   407A      3.512658   408A      3.517522  
     409A      3.535931   410A      3.547970   411A      3.556634  
     412A      3.560440   413A      3.566881   414A      3.585465  
     415A      3.592270   416A      3.601225   417A      3.630727  
     418A      3.630921   419A      3.651471   420A      3.665369  
     421A      3.689522   422A      3.701534   423A      3.758040  
     424A      3.766442   425A      3.768776   426A      3.783113  
     427A      3.794928   428A      3.795609   429A      3.808410  
     430A      3.822237   431A      3.829713   432A      3.835169  
     433A      3.839950   434A      3.870551   435A      3.881088  
     436A      3.900303   437A      3.906334   438A      3.924691  
     439A      3.928627   440A      3.934552   441A      3.941487  
     442A      3.944916   443A      3.968249   444A      3.970949  
     445A      3.985143   446A      3.992870   447A      4.011115  
     448A      4.030746   449A      4.045157   450A      4.071413  
     451A      4.073546   452A      4.083712   453A      4.093221  
     454A      4.098281   455A      4.115726   456A      4.119435  
     457A      4.138136   458A      4.157381   459A      4.165306  
     460A      4.178353   461A      4.197308   462A      4.197558  
     463A      4.209554   464A      4.214232   465A      4.229941  
     466A      4.236930   467A      4.240971   468A      4.245027  
     469A      4.264389   470A      4.268643   471A      4.277616  
     472A      4.295522   473A      4.302748   474A      4.316727  
     475A      4.329413   476A      4.330821   477A      4.354684  
     478A      4.377204   479A      4.390240   480A      4.402511  
     481A      4.403013   482A      4.407463   483A      4.415180  
     484A      4.424606   485A      4.464580   486A      4.489091  
     487A      4.541419   488A      4.550784   489A      4.556461  
     490A      4.593574   491A      4.611711   492A      4.613526  
     493A      5.263512   494A      5.340720   495A      5.347525  
     496A      5.412178   497A      5.473660   498A      5.477606  
     499A      5.543155   500A      5.544199   501A      5.562186  
     502A      5.581196   503A      5.587622   504A      5.630958  
     505A      5.688547   506A      5.703319   507A      5.710823  
     508A      5.722884   509A      5.725874   510A      5.735331  
     511A      5.745551   512A      5.755237   513A      5.771864  
     514A      5.771879   515A      5.776056   516A      5.781325  
     517A      5.789166   518A      5.790261   519A      5.802220  
     520A      5.817560   521A      5.827149   522A      5.838117  
     523A      5.839593   524A      5.870715   525A      5.880744  
     526A      5.886891   527A      5.902714   528A      5.924988  
     529A      5.926301   530A      5.933137   531A      5.961190  
     532A      6.008703   533A      6.015593   534A      6.051350  
     535A      6.053309   536A      6.078066   537A      6.082402  
     538A      6.087684   539A      6.114503   540A      6.118760  
     541A      6.121701   542A      6.130493   543A      6.141326  
     544A      6.156597   545A      6.161641   546A      6.173735  
     547A      6.175456   548A      6.194466   549A      6.196155  
     550A      6.198315   551A      6.209136   552A      6.222551  
     553A      6.231139   554A      6.234934   555A      6.243634  
     556A      6.248457   557A      6.258638   558A      6.260623  
     559A      6.269588   560A      6.273758   561A      6.290230  
     562A      6.298736   563A      6.300482   564A      6.307369  
     565A      6.308761   566A      6.332677   567A      6.349235  
     568A      6.356934   569A      6.369075   570A      6.377137  
     571A      6.387404   572A      6.396428   573A      6.399576  
     574A      6.404727   575A      6.415612   576A      6.431255  
     577A      6.433914   578A      6.434041   579A      6.441045  
     580A      6.447602   581A      6.471012   582A      6.471219  
     583A      6.474756   584A      6.477374   585A      6.484767  
     586A      6.492365   587A      6.515956   588A      6.519534  
     589A      6.530713   590A      6.533089   591A      6.543478  
     592A      6.552118   593A      6.559444   594A      6.560849  
     595A      6.571690   596A      6.578618   597A      6.579947  
     598A      6.580815   599A      6.582631   600A      6.599370  
     601A      6.606256   602A      6.609205   603A      6.616255  
     604A      6.620965   605A      6.634831   606A      6.643735  
     607A      6.648898   608A      6.656178   609A      6.670677  
     610A      6.673855   611A      6.678504   612A      6.690611  
     613A      6.697958   614A      6.701247   615A      6.714368  
     616A      6.717385   617A      6.725143   618A      6.733443  
     619A      6.750356   620A      6.751316   621A      6.758940  
     622A      6.765834   623A      6.785997   624A      6.796751  
     625A      6.800746   626A      6.807189   627A      6.815444  
     628A      6.820449   629A      6.839231   630A      6.843027  
     631A      6.849069   632A      6.849127   633A      6.875727  
     634A      6.877104   635A      6.882162   636A      6.884760  
     637A      6.908067   638A      6.918653   639A      6.923207  
     640A      6.942827   641A      6.955136   642A      6.959565  
     643A      6.960814   644A      6.966356   645A      6.983170  
     646A      6.997303   647A      6.997636   648A      7.032931  
     649A      7.048878   650A      7.050406   651A      7.051084  
     652A      7.073088   653A      7.088666   654A      7.109506  
     655A      7.112362   656A      7.113131   657A      7.123284  
     658A      7.137938   659A      7.181377   660A      7.182427  
     661A      7.186867   662A      7.202515   663A      7.209533  
     664A      7.233412   665A      7.246670   666A      7.264335  
     667A      7.268159   668A      7.274434   669A      7.276423  
     670A      7.297867   671A      7.318447   672A      7.326007  
     673A      7.328840   674A      7.350096   675A      7.367919  
     676A      7.375924   677A      7.386073   678A      7.404281  
     679A      7.414325   680A      7.419148   681A      7.427719  
     682A      7.446598   683A      7.450438   684A      7.460964  
     685A      7.464076   686A      7.472420   687A      7.476888  
     688A      7.502593   689A      7.520667   690A      7.527785  
     691A      7.544303   692A      7.561331   693A      7.593798  
     694A      7.611200   695A      7.657344   696A      7.670217  
     697A      7.671544   698A      7.686061   699A      7.690873  
     700A      7.694095   701A      7.705531   702A      7.724094  
     703A      7.725952   704A      7.741520   705A      7.763739  
     706A      7.766912   707A      7.775845   708A      7.791711  
     709A      7.808807   710A      7.820023   711A      7.842888  
     712A      7.859352   713A      7.868924   714A      7.883930  
     715A      7.893580   716A      7.908965   717A      7.920478  
     718A      7.924192   719A      7.935594   720A      7.938230  
     721A      7.950458   722A      7.959432   723A      7.963138  
     724A      7.971516   725A      7.982487   726A      7.992957  
     727A      7.996546   728A      8.013724   729A      8.014336  
     730A      8.030036   731A      8.035140   732A      8.048739  
     733A      8.050566   734A      8.064083   735A      8.069945  
     736A      8.082474   737A      8.093633   738A      8.100836  
     739A      8.105373   740A      8.117590   741A      8.125547  
     742A      8.129008   743A      8.148163   744A      8.152280  
     745A      8.157414   746A      8.170385   747A      8.203261  
     748A      8.207761   749A      8.211590   750A      8.222994  
     751A      8.231738   752A      8.242796   753A      8.250432  
     754A      8.255708   755A      8.261222   756A      8.265405  
     757A      8.277505   758A      8.291843   759A      8.293105  
     760A      8.300198   761A      8.303691   762A      8.313171  
     763A      8.322727   764A      8.331602   765A      8.343795  
     766A      8.353960   767A      8.359521   768A      8.383529  
     769A      8.384660   770A      8.397178   771A      8.411489  
     772A      8.415387   773A      8.426445   774A      8.432727  
     775A      8.454289   776A      8.456111   777A      8.461448  
     778A      8.480775   779A      8.485244   780A      8.486932  
     781A      8.489390   782A      8.494681   783A      8.497347  
     784A      8.505555   785A      8.523430   786A      8.543434  
     787A      8.550676   788A      8.553407   789A      8.562638  
     790A      8.575876   791A      8.585988   792A      8.607709  
     793A      8.623915   794A      8.626518   795A      8.648981  
     796A      8.654882   797A      8.659940   798A      8.688606  
     799A      8.694067   800A      8.719193   801A      8.746298  
     802A      8.755357   803A      8.763418   804A      8.765256  
     805A      8.767140   806A      8.810554   807A      8.811312  
     808A      8.822562   809A      8.828204   810A      8.829220  
     811A      8.847981   812A      8.853744   813A      8.861295  
     814A      8.863922   815A      8.865965   816A      8.881663  
     817A      8.903397   818A      8.904159   819A      8.924126  
     820A      8.931222   821A      8.940370   822A      8.944304  
     823A      8.952679   824A      8.963411   825A      8.976826  
     826A      8.993852   827A      9.002232   828A      9.019195  
     829A      9.023181   830A      9.033152   831A      9.040007  
     832A      9.052227   833A      9.075474   834A      9.079146  
     835A      9.094899   836A      9.117973   837A      9.131024  
     838A      9.134096   839A      9.134779   840A      9.157219  
     841A      9.173923   842A      9.178391   843A      9.192098  
     844A      9.203094   845A      9.205999   846A      9.221823  
     847A      9.227613   848A      9.249126   849A      9.250275  
     850A      9.269423   851A      9.283175   852A      9.289362  
     853A      9.310135   854A      9.322082   855A      9.339142  
     856A      9.341668   857A      9.342892   858A      9.353330  
     859A      9.353563   860A      9.365415   861A      9.367755  
     862A      9.369847   863A      9.387758   864A      9.398420  
     865A      9.408328   866A      9.422217   867A      9.424226  
     868A      9.448002   869A      9.456853   870A      9.466961  
     871A      9.477535   872A      9.506892   873A      9.508638  
     874A      9.526701   875A      9.530869   876A      9.539157  
     877A      9.542357   878A      9.552784   879A      9.553064  
     880A      9.558163   881A      9.561942   882A      9.580462  
     883A      9.593275   884A      9.615698   885A      9.632637  
     886A      9.635421   887A      9.651306   888A      9.671759  
     889A      9.682634   890A      9.691431   891A      9.704433  
     892A      9.724005   893A      9.724667   894A      9.747166  
     895A      9.753066   896A      9.770064   897A      9.778440  
     898A      9.799918   899A      9.822694   900A      9.880452  
     901A     10.184977   902A     10.190188   903A     10.195867  
     904A     10.204862   905A     10.238184   906A     10.239861  
     907A     10.242649   908A     10.261195   909A     10.268678  
     910A     10.278443   911A     10.316568   912A     10.378346  
     913A     10.407735   914A     10.438293   915A     10.443054  
     916A     10.469437   917A     10.515135   918A     10.522337  
     919A     10.561852   920A     10.568750   921A     10.579043  
     922A     10.594835   923A     10.601116   924A     10.611339  
     925A     10.632907   926A     10.656287   927A     10.662431  
     928A     10.662534   929A     10.698796   930A     10.706004  
     931A     10.731837   932A     10.732563   933A     10.744014  
     934A     10.746836   935A     10.758149   936A     10.764400  
     937A     10.799765   938A     10.808620   939A     10.825077  
     940A     10.830310   941A     10.844091   942A     10.864186  
     943A     10.864578   944A     10.879726   945A     10.881402  
     946A     10.902759   947A     10.906121   948A     10.934251  
     949A     10.982724   950A     11.027456   951A     11.041643  
     952A     11.076220   953A     11.122960   954A     11.123712  
     955A     11.763536   956A     11.765161   957A     12.061639  
     958A     12.078404   959A     12.238918   960A     12.290318  
     961A     12.488754   962A     12.570068   963A     12.829474  
     964A     12.832732   965A     12.924420   966A     12.932046  
     967A     12.941507   968A     12.941820   969A     13.003094  
     970A     13.015382   971A     13.068650   972A     13.078738  
     973A     26.656969   974A     26.677510   975A     26.750156  
     976A     26.758896   977A     26.922736   978A     27.123322  
     979A     27.353802   980A     27.387061  

    Final Occupation by Irrep:
              A 
    DOCC [    33 ]

  Energy converged.

  @DF-RHF Final Energy:  -313.56412503148283

   => Energetics <=

    Nuclear Repulsion Energy =            383.0640625445247451
    One-Electron Energy =               -1181.3269545731150174
    Two-Electron Energy =                 484.6987669971071568
    DFT Exchange-Correlation Energy =       0.0000000000000000
    Empirical Dispersion Energy =           0.0000000000000000
    PCM Polarization Energy =               0.0000000000000000
    EFP Energy =                            0.0000000000000000
    Total Energy =                       -313.5641250314831154


  Saving occupied orbitals to File 180.

*** tstop() called on wr41 at Thu Sep 22 07:17:04 2016
Module time:
	user time   =     661.92 seconds =      11.03 minutes
	system time =       8.16 seconds =       0.14 minutes
	total time  =         64 seconds =       1.07 minutes
Total time:
	user time   =     848.34 seconds =      14.14 minutes
	system time =      12.53 seconds =       0.21 minutes
	total time  =         87 seconds =       1.45 minutes


Properties will be evaluated at   0.000000,   0.000000,   0.000000 Bohr

Properties computed using the SCF density matrix

  Nuclear Dipole Moment: (a.u.)
     X:     0.0000      Y:     0.0000      Z:    -1.7912

  Electronic Dipole Moment: (a.u.)
     X:     0.0000      Y:    -0.0000      Z:     1.8283

  Dipole Moment: (a.u.)
     X:     0.0000      Y:     0.0000      Z:     0.0371     Total:     0.0371

  Dipole Moment: (Debye)
     X:     0.0000      Y:     0.0000      Z:     0.0943     Total:     0.0943


  //>>>>>>>>>>>>>>>>>>>>>>>>>>>>>>>>>>>//
  //               DFMP2               //
  //<<<<<<<<<<<<<<<<<<<<<<<<<<<<<<<<<<<//


*** tstart() called on wr41
*** at Thu Sep 22 07:17:05 2016


*** tstop() called on wr41 at Thu Sep 22 07:17:05 2016
Module time:
	user time   =       4.12 seconds =       0.07 minutes
	system time =       0.05 seconds =       0.00 minutes
	total time  =          0 seconds =       0.00 minutes
Total time:
	user time   =     852.65 seconds =      14.21 minutes
	system time =      12.58 seconds =       0.21 minutes
	total time  =         88 seconds =       1.47 minutes
	 --------------------------------------------------------
	                          DF-MP2                         
	      2nd-Order Density-Fitted Moller-Plesset Theory     
	              RMP2 Wavefunction,  12 Threads             
	                                                         
	        Rob Parrish, Justin Turney, Andy Simmonett,      
	           Ed Hohenstein, and C. David Sherrill          
	 --------------------------------------------------------

   => Auxiliary Basis Set <=

  Basis Set: 
    Number of shells: 510
    Number of basis function: 2046
    Number of Cartesian functions: 2708
    Spherical Harmonics?: true
    Max angular momentum: 5

	 --------------------------------------------------------
	                 NBF =   980, NAUX =  2046
	 --------------------------------------------------------
	   CLASS    FOCC     OCC    AOCC    AVIR     VIR    FVIR
	   PAIRS       8      33      25     947     947       0
	 --------------------------------------------------------

	-----------------------------------------------------------
	 ==================> DF-MP2 Energies <==================== 
	-----------------------------------------------------------
	 Reference Energy          =    -313.5641250314828312 [Eh]
	 Singles Energy            =      -0.0000000000018241 [Eh]
	 Same-Spin Energy          =      -0.3215490039562281 [Eh]
	 Opposite-Spin Energy      =      -1.1811962590191276 [Eh]
	 Correlation Energy        =      -1.5027452629771798 [Eh]
	 Total Energy              =    -315.0668702944599886 [Eh]
	-----------------------------------------------------------
	 ================> DF-SCS-MP2 Energies <================== 
	-----------------------------------------------------------
	 SCS Same-Spin Scale       =       0.3333333333333333 [-]
	 SCS Opposite-Spin Scale   =       1.2000000000000000 [-]
	 SCS Same-Spin Energy      =      -0.1071830013187427 [Eh]
	 SCS Opposite-Spin Energy  =      -1.4174355108229530 [Eh]
	 SCS Correlation Energy    =      -1.5246185121435198 [Eh]
	 SCS Total Energy          =    -315.0887435436263786 [Eh]
	-----------------------------------------------------------


  //>>>>>>>>>>>>>>>>>>>>>>>>>>>>>>>>>>>//
  //    CBS Results: custom function   //
  //<<<<<<<<<<<<<<<<<<<<<<<<<<<<<<<<<<<//


   ==> Helgaker 2-point SCF extrapolation for method: HF <==

   LO-zeta (3) Energy:               -313.544333549705
   HI-zeta (4) Energy:               -313.564125031483
   Alpha (exponent) Value:             1.630000000000
   Beta (coefficient) Value:           3.272534536182

   @Extrapolated HF/(T,Q):          -313.568947664515



   ==> Helgaker 2-point correlated extrapolation for method: MP2 <==

   LO-zeta (3) Energy:               -314.960976441282
   HI-zeta (4) Energy:               -315.066870294460
   Extrapolated Energy:              -315.144144187320

   @Extrapolated MP2/(T,Q):          -315.144144187320



   ==> Helgaker 2-point correlated extrapolation for method: HF <==

   LO-zeta (3) Energy:               -313.544333549705
   HI-zeta (4) Energy:               -313.564125031483
   Extrapolated Energy:              -313.578567464132

   @Extrapolated HF/(T,Q):           -313.578567464132


   ==> Components <==

  ---------------------------------------------------------------------------------------------------------
                          Method / Basis                      Rqd      Energy [Eh]   Variable
  ---------------------------------------------------------------------------------------------------------
                             mp2 / cc-pvtz                      *    -314.96097644   MP2 TOTAL ENERGY
                              hf / cc-pvtz                      *    -313.54433355   HF TOTAL ENERGY
                             mp2 / cc-pvqz                      *    -315.06687029   MP2 TOTAL ENERGY
                              hf / cc-pvqz                      *    -313.56412503   HF TOTAL ENERGY
  ---------------------------------------------------------------------------------------------------------

   ==> Stages <==

  ---------------------------------------------------------------------------------------------------------
      Stage               Method / Basis                       Wt      Energy [Eh]   Scheme
  ---------------------------------------------------------------------------------------------------------
        scf                   hf / cc-pv[tq]z                   1    -313.56894766   scf_xtpl_helgaker_2
       corl                  mp2 / cc-pv[tq]z                   1    -315.14414419   corl_xtpl_helgaker_2
       corl                   hf / cc-pv[tq]z                  -1    -313.57856746   corl_xtpl_helgaker_2
  ---------------------------------------------------------------------------------------------------------

   ==> CBS <==

  ---------------------------------------------------------------------------------------------------------
      Stage               Method / Basis                               Energy [Eh]   Scheme
  ---------------------------------------------------------------------------------------------------------
        scf                   hf / cc-pv[tq]z                        -313.56894766   scf_xtpl_helgaker_2
       corl                  mp2 / cc-pv[tq]z                          -1.56557672   corl_xtpl_helgaker_2
      total                  CBS                                     -315.13452439   
  ---------------------------------------------------------------------------------------------------------

*** Psi4 exiting successfully. Buy a developer a beer!
