----- GAMESS execution script 'rungms' -----
This job is running on host wr36
under operating system Linux at Thu Jan 18 12:03:21 CET 2018
PBS has assigned the following compute nodes to this run:
wr36
Available scratch disk space (Kbyte units) at beginning of the job is
Filesystem     1K-blocks    Used Available Use% Mounted on
/dev/sda2      379797844 9516740 350981828   3% /
GAMESS temporary binary files will be written to /tmp/8023.wr0.wr.inf.h-brs.de
GAMESS supplementary output files will be written to /tmp/8023.wr0.wr.inf.h-brs.de
Copying input file molecule-1-gam.inp to your run's scratch directory...
cp molecule-1-gam.inp /tmp/8023.wr0.wr.inf.h-brs.de/molecule-1-gam.F05
unset echo
/usr/local/hpc5/gamess-gnu/ddikick.x /usr/local/hpc5/gamess-gnu/gamess.00.x molecule-1-gam -ddi 1 8 wr36:cpus=8:netext=.myri -scr /tmp/8023.wr0.wr.inf.h-brs.de

 Distributed Data Interface kickoff program.
 Initiating 8 compute processes on 1 nodes to run the following command:
 /usr/local/hpc5/gamess-gnu/gamess.00.x molecule-1-gam 

          ******************************************************
          *         GAMESS VERSION =  1 MAY 2013 (R1)          *
          *             FROM IOWA STATE UNIVERSITY             *
          * M.W.SCHMIDT, K.K.BALDRIDGE, J.A.BOATZ, S.T.ELBERT, *
          *   M.S.GORDON, J.H.JENSEN, S.KOSEKI, N.MATSUNAGA,   *
          *          K.A.NGUYEN, S.J.SU, T.L.WINDUS,           *
          *       TOGETHER WITH M.DUPUIS, J.A.MONTGOMERY       *
          *         J.COMPUT.CHEM.  14, 1347-1363(1993)        *
          **************** 64 BIT LINUX VERSION ****************

  SINCE 1993, STUDENTS AND POSTDOCS WORKING AT IOWA STATE UNIVERSITY
  AND ALSO IN THEIR VARIOUS JOBS AFTER LEAVING ISU HAVE MADE IMPORTANT
  CONTRIBUTIONS TO THE CODE:
     IVANA ADAMOVIC, CHRISTINE AIKENS, YURI ALEXEEV, POOJA ARORA,
     ANDREY ASADCHEV, ROB BELL, PRADIPTA BANDYOPADHYAY, JONATHAN BENTZ,
     BRETT BODE, GALINA CHABAN, WEI CHEN, CHEOL HO CHOI, PAUL DAY,
     ALBERT DEFUSCO, TIM DUDLEY, DMITRI FEDOROV, GRAHAM FLETCHER,
     MARK FREITAG, KURT GLAESEMANN, DAN KEMP, GRANT MERRILL,
     NORIYUKI MINEZAWA, JONATHAN MULLIN, TAKESHI NAGATA,
     SEAN NEDD, HEATHER NETZLOFF, BOSILJKA NJEGIC, RYAN OLSON, MIKE PAK,
     JIM SHOEMAKER, LYUDMILA SLIPCHENKO, SAROM SOK, JIE SONG,
     TETSUYA TAKETSUGU, SIMON WEBB, SOOHAENG YOO, FEDERICO ZAHARIEV

  ADDITIONAL CODE HAS BEEN PROVIDED BY COLLABORATORS IN OTHER GROUPS:
     IOWA STATE UNIVERSITY:
          JOE IVANIC, LAIMUTIS BYTAUTAS, KLAUS RUEDENBERG
     UNIVERSITY OF TOKYO: KIMIHIKO HIRAO, TAKAHITO NAKAJIMA,
          TAKAO TSUNEDA, MUNEAKI KAMIYA, SUSUMU YANAGISAWA,
          KIYOSHI YAGI, MAHITO CHIBA, SEIKEN TOKURA, NAOAKI KAWAKAMI
     UNIVERSITY OF AARHUS: FRANK JENSEN
     UNIVERSITY OF IOWA: VISVALDAS KAIRYS, HUI LI
     NATIONAL INST. OF STANDARDS AND TECHNOLOGY: WALT STEVENS, DAVID GARMER
     UNIVERSITY OF PISA: BENEDETTA MENNUCCI, JACOPO TOMASI
     UNIVERSITY OF MEMPHIS: HENRY KURTZ, PRAKASHAN KORAMBATH
     UNIVERSITY OF ALBERTA: TOBY ZENG, MARIUSZ KLOBUKOWSKI
     UNIVERSITY OF NEW ENGLAND: MARK SPACKMAN
     MIE UNIVERSITY: HIROAKI UMEDA
     MICHIGAN STATE UNIVERSITY:
          KAROL KOWALSKI, MARTA WLOCH, JEFFREY GOUR, JESSE LUTZ,
          WEI LI, PIOTR PIECUCH
     UNIVERSITY OF SILESIA: MONIKA MUSIAL, STANISLAW KUCHARSKI
     FACULTES UNIVERSITAIRES NOTRE-DAME DE LA PAIX:
          OLIVIER QUINET, BENOIT CHAMPAGNE
     UNIVERSITY OF CALIFORNIA - SANTA BARBARA: BERNARD KIRTMAN
     INSTITUTE FOR MOLECULAR SCIENCE:
          KAZUYA ISHIMURA, MICHIO KATOUDA, AND SHIGERU NAGASE
     UNIVERSITY OF NOTRE DAME: DAN CHIPMAN
     KYUSHU UNIVERSITY:
          HARUYUKI NAKANO,
          FENG LONG GU, JACEK KORCHOWIEC, MARCIN MAKOWSKI, AND YURIKO AOKI,
          HIROTOSHI MORI AND EISAKU MIYOSHI
     PENNSYLVANIA STATE UNIVERSITY:
          TZVETELIN IORDANOV, CHET SWALINA, JONATHAN SKONE,
          SHARON HAMMES-SCHIFFER
     WASEDA UNIVERSITY:
          MASATO KOBAYASHI, TOMOKO AKAMA, TSUGUKI TOUMA,
          TAKESHI YOSHIKAWA, YASUHIRO IKABATA, HIROMI NAKAI
     NANJING UNIVERSITY: SHUHUA LI
     UNIVERSITY OF NEBRASKA:
          PEIFENG SU, DEJUN SI, NANDUN THELLAMUREGE, YALI WANG, HUI LI
     UNIVERSITY OF ZURICH:
          ROBERTO PEVERATI, KIM BALDRIDGE
     N. COPERNICUS UNIVERSITY AND JACKSON STATE UNIVERSITY:
          MARIA BARYSZ


 PARALLEL VERSION RUNNING ON     8 PROCESSORS IN     1 NODES.

 EXECUTION OF GAMESS BEGUN Thu Jan 18 12:03:21 2018

            ECHO OF THE FIRST FEW INPUT CARDS -
 INPUT CARD> $CONTRL ICHARG=0 NZVAR=45 MPLEVL=0 ISPHER=0                                    
 INPUT CARD>         RUNTYP=OPTIMIZE SCFTYP=RHF EXETYP=RUN                                  
 INPUT CARD>         MULT=1 UNITS=ANGS MAXIT=200                                            
 INPUT CARD>         COORD=PRINAXIS                       $END                              
 INPUT CARD> $BASIS  GBASIS=N31 NGAUSS=6 NDFUNC=1 NPFUNC=0                                  
 INPUT CARD>         DIFFSP=.F.                           $END                              
 INPUT CARD> $SCF    DIRSCF=.F. CONV=1.0E-08              $END                              
 INPUT CARD> $SYSTEM TIMLIM=50000 MWORDS=110 MEMDDI=0 $END                                  
 INPUT CARD> $FORCE  METHOD=SEMINUM VIBANL=.F.            $END                              
 INPUT CARD> $STATPT NSTEP=200 OPTTOL=1.0E-06             $END                              
 INPUT CARD> $GUESS  GUESS=HUCKEL                         $END                              
 INPUT CARD> $ZMAT   AUTO=.TRUE. DLC=.TRUE.               $END                              
 INPUT CARD> $DATA                                                                          
 INPUT CARD> Full optimization                                                              
 INPUT CARD> C1                                                                             
 INPUT CARD> C     6.0     -2.548   0.336   0.010                                           
 INPUT CARD> H     1.0     -2.606   0.892  -0.921                                           
 INPUT CARD> H     1.0     -2.580   1.053   0.825                                           
 INPUT CARD> H     1.0     -3.438  -0.283   0.080                                           
 INPUT CARD> C     6.0      2.552   0.322  -0.065                                           
 INPUT CARD> H     1.0      3.440  -0.301  -0.021                                           
 INPUT CARD> H     1.0      2.585   0.879  -0.997                                           
 INPUT CARD> H     1.0      2.611   1.040   0.749                                           
 INPUT CARD> C     6.0      1.279  -0.518   0.031                                           
 INPUT CARD> H     1.0      1.293  -1.088   0.958                                           
 INPUT CARD> H     1.0      1.267  -1.248  -0.775                                           
 INPUT CARD> C     6.0      0.002   0.322  -0.027                                           
 INPUT CARD> H     1.0      0.016   1.053   0.780                                           
 INPUT CARD> H     1.0     -0.010   0.893  -0.954                                           
 INPUT CARD> C     6.0     -1.277  -0.511   0.069                                           
 INPUT CARD> H     1.0     -1.293  -1.241  -0.738                                           
 INPUT CARD> H     1.0     -1.267  -1.082   0.995                                           
 INPUT CARD> $END                                                                           
  110000000 WORDS OF MEMORY AVAILABLE

     BASIS OPTIONS
     -------------
     GBASIS=N31          IGAUSS=       6      POLAR=POPN31  
     NDFUNC=       1     NFFUNC=       0     DIFFSP=       F
     NPFUNC=       0      DIFFS=       F     BASNAM=        


     RUN TITLE
     ---------
  Full optimization                                                              

 THE POINT GROUP OF THE MOLECULE IS C1      
 THE ORDER OF THE PRINCIPAL AXIS IS     0

 THE MOMENTS OF INERTIA ARE (AMU-ANGSTROM**2)
 IXX=    29.369   IYY=   260.597   IZZ=   274.604

 ATOM      ATOMIC                      COORDINATES (BOHR)
           CHARGE         X                   Y                   Z
 C           6.0    -4.8193999677        0.6249310869        0.0000106103
 H           1.0    -4.9059570070        1.8320371756       -1.6572822538
 H           1.0    -4.9061990220        1.8331796759        1.6565410540
 H           1.0    -6.4998413090       -0.5542837401       -0.0003295060
 C           6.0     4.8192809447        0.6246124361        0.0000637655
 H           1.0     6.4991397573       -0.5530814510        0.0001711281
 H           1.0     4.9046924018        1.8340062340       -1.6563757017
 H           1.0     4.9044503867        1.8351487342        1.6574476062
 C           6.0     2.4155654394       -0.9759558337       -0.0003380043
 H           1.0     2.4191668123       -2.2088281249        1.6457697648
 H           1.0     2.4190422618       -2.2103366026       -1.6434199760
 C           6.0    -0.0000375335        0.6115127270       -0.0002319564
 H           1.0     0.0002317444        1.8476075085        1.6449607686
 H           1.0     0.0001349970        1.8462719366       -1.6461105660
 C           6.0    -2.4151260052       -0.9758983242        0.0004072825
 H           1.0    -2.4191794378       -2.2101164294       -1.6446689045
 H           1.0    -2.4190497616       -2.2104897490        1.6443479876

          INTERNUCLEAR DISTANCES (ANGS.)
          ------------------------------

                1 C          2 H          3 H          4 H          5 C     

   1 C       0.0000000    1.0859378 *  1.0859733 *  1.0863522 *  5.1005707  
   2 H       1.0859378 *  0.0000000    1.7536000 *  1.7535250 *  5.2595247  
   3 H       1.0859733 *  1.7536000 *  0.0000000    1.7538771 *  5.2596469  
   4 H       1.0863522 *  1.7535250 *  1.7538771 *  0.0000000    6.0222214  
   5 C       5.1005707    5.2595247    5.2596469    6.0222214    0.0000000  
   6 H       6.0218663    6.2279503    6.2281162    6.8787651    1.0856376 *
   7 H       5.2589530    5.1915726    5.4797067    6.2278971    1.0862606 *
   8 H       5.2589940    5.4797713    5.1915726    6.2280246    1.0870147 *
   9 C       3.9211843    4.2411825    4.2415042    4.7231044    1.5281836 *
  10 H       4.2047308    4.7595422    4.4273806    4.8786545    2.1493511 *
  11 H       4.2047005    4.4273067    4.7596229    4.8784501    2.1494709 *
  12 C       2.5503068 *  2.8152797 *  2.8154909 *  3.4944347    2.5502831 *
  13 H       2.7714770 *  3.1295696    2.5963900 *  3.7689537    2.7712239 *
  14 H       2.7714597 *  2.5962099 *  3.1297509    3.7687287    2.7713185 *
  15 C       1.5285061 *  2.1713475 *  2.1715066 *  2.1730223 *  3.9208527  
  16 H       2.1497577 *  2.5114034 *  3.0597016    2.4875516 *  4.2047501  
  17 H       2.1498628 *  3.0595184    2.5121891 *  2.4877434 *  4.2047089  

                6 H          7 H          8 H          9 C         10 H     

   1 C       6.0218663    5.2589530    5.2589940    3.9211843    4.2047308  
   2 H       6.2279503    5.1915726    5.4797713    4.2411825    4.7595422  
   3 H       6.2281162    5.4797067    5.1915726    4.2415042    4.4273806  
   4 H       6.8787651    6.2278971    6.2280246    4.7231044    4.8786545  
   5 C       1.0856376 *  1.0862606 *  1.0870147 *  1.5281836 *  2.1493511 *
   6 H       0.0000000    1.7538532 *  1.7545432 *  2.1724903 *  2.4874523 *
   7 H       1.7538532 *  0.0000000    1.7536000 *  2.1711815 *  3.0594735  
   8 H       1.7545432 *  1.7536000 *  0.0000000    2.1718913 *  2.5118099 *
   9 C       2.1724903 *  2.1711815 *  2.1718913 *  0.0000000    1.0883129 *
  10 H       2.4874523 *  3.0594735    2.5118099 *  1.0883129 *  0.0000000  
  11 H       2.4874191 *  2.5120782 *  3.0600418    1.0875109 *  1.7405646 *
  12 C       3.4939961    2.8147892 *  2.8150632 *  1.5296055 *  2.1505827 *
  13 H       3.7681153    3.1285406    2.5952177 *  2.1503979 *  2.4992587 *
  14 H       3.7681063    2.5953940 *  3.1291307    2.1500388 *  3.0459668  
  15 C       4.7225299    4.2406957    4.2408189    2.5562920 *  2.7799550 *
  16 H       4.8784196    4.4272299    4.7597632    2.7801572 *  3.0963238  
  17 H       4.8783261    4.7593580    4.4274467    2.7801993 *  2.5602744 *

               11 H         12 C         13 H         14 H         15 C     

   1 C       4.2047005    2.5503068 *  2.7714770 *  2.7714597 *  1.5285061 *
   2 H       4.4273067    2.8152797 *  3.1295696    2.5962099 *  2.1713475 *
   3 H       4.7596229    2.8154909 *  2.5963900 *  3.1297509    2.1715066 *
   4 H       4.8784501    3.4944347    3.7689537    3.7687287    2.1730223 *
   5 C       2.1494709 *  2.5502831 *  2.7712239 *  2.7713185 *  3.9208527  
   6 H       2.4874191 *  3.4939961    3.7681153    3.7681063    4.7225299  
   7 H       2.5120782 *  2.8147892 *  3.1285406    2.5953940 *  4.2406957  
   8 H       3.0600418    2.8150632 *  2.5952177 *  3.1291307    4.2408189  
   9 C       1.0875109 *  1.5296055 *  2.1503979 *  2.1500388 *  2.5562920 *
  10 H       1.7405646 *  2.1505827 *  2.4992587 *  3.0459668    2.7799550 *
  11 H       0.0000000    2.1504951 *  3.0459197    2.4993301 *  2.7798275 *
  12 C       2.1504951 *  0.0000000    1.0889472 *  1.0888131 *  1.5293613 *
  13 H       3.0459197    1.0889472 *  0.0000000    1.7415602 *  2.1502246 *
  14 H       2.4993301 *  1.0888131 *  1.7415602 *  0.0000000    2.1501242 *
  15 C       2.7798275 *  1.5293613 *  2.1502246 *  2.1501242 *  0.0000000  
  16 H       2.5602769 *  2.1507010 *  3.0463488    2.4993401 *  1.0883037 *
  17 H       3.0954179    2.1508280 *  2.5001078 *  3.0461902    1.0879416 *

               16 H         17 H     

   1 C       2.1497577 *  2.1498628 *
   2 H       2.5114034 *  3.0595184  
   3 H       3.0597016    2.5121891 *
   4 H       2.4875516 *  2.4877434 *
   5 C       4.2047501    4.2047089  
   6 H       4.8784196    4.8783261  
   7 H       4.4272299    4.7593580  
   8 H       4.7597632    4.4274467  
   9 C       2.7801572 *  2.7801993 *
  10 H       3.0963238    2.5602744 *
  11 H       2.5602769 *  3.0954179  
  12 C       2.1507010 *  2.1508280 *
  13 H       3.0463488    2.5001078 *
  14 H       2.4993401 *  3.0461902  
  15 C       1.0883037 *  1.0879416 *
  16 H       0.0000000    1.7404729 *
  17 H       1.7404729 *  0.0000000  

  * ... LESS THAN  3.000


     ATOMIC BASIS SET
     ----------------
 THE CONTRACTED PRIMITIVE FUNCTIONS HAVE BEEN UNNORMALIZED
 THE CONTRACTED BASIS FUNCTIONS ARE NOW NORMALIZED TO UNITY

  SHELL TYPE  PRIMITIVE        EXPONENT          CONTRACTION COEFFICIENT(S)

 C         

      1   S       1          3047.5248800    0.001834737132
      1   S       2           457.3695180    0.014037322813
      1   S       3           103.9486850    0.068842622264
      1   S       4            29.2101553    0.232184443216
      1   S       5             9.2866630    0.467941348435
      1   S       6             3.1639270    0.362311985337

      2   L       7             7.8682723   -0.119332419775    0.068999066591
      2   L       8             1.8812885   -0.160854151696    0.316423960957
      2   L       9             0.5442493    1.143456437840    0.744308290898

      3   L      10             0.1687145    1.000000000000    1.000000000000

      4   D      11             0.8000000    1.000000000000

 H         

      5   S      12            18.7311370    0.033494604338
      5   S      13             2.8253944    0.234726953484
      5   S      14             0.6401217    0.813757326146

      6   S      15             0.1612778    1.000000000000

 H         

      7   S      16            18.7311370    0.033494604338
      7   S      17             2.8253944    0.234726953484
      7   S      18             0.6401217    0.813757326146

      8   S      19             0.1612778    1.000000000000

 H         

      9   S      20            18.7311370    0.033494604338
      9   S      21             2.8253944    0.234726953484
      9   S      22             0.6401217    0.813757326146

     10   S      23             0.1612778    1.000000000000

 C         

     11   S      24          3047.5248800    0.001834737132
     11   S      25           457.3695180    0.014037322813
     11   S      26           103.9486850    0.068842622264
     11   S      27            29.2101553    0.232184443216
     11   S      28             9.2866630    0.467941348435
     11   S      29             3.1639270    0.362311985337

     12   L      30             7.8682723   -0.119332419775    0.068999066591
     12   L      31             1.8812885   -0.160854151696    0.316423960957
     12   L      32             0.5442493    1.143456437840    0.744308290898

     13   L      33             0.1687145    1.000000000000    1.000000000000

     14   D      34             0.8000000    1.000000000000

 H         

     15   S      35            18.7311370    0.033494604338
     15   S      36             2.8253944    0.234726953484
     15   S      37             0.6401217    0.813757326146

     16   S      38             0.1612778    1.000000000000

 H         

     17   S      39            18.7311370    0.033494604338
     17   S      40             2.8253944    0.234726953484
     17   S      41             0.6401217    0.813757326146

     18   S      42             0.1612778    1.000000000000

 H         

     19   S      43            18.7311370    0.033494604338
     19   S      44             2.8253944    0.234726953484
     19   S      45             0.6401217    0.813757326146

     20   S      46             0.1612778    1.000000000000

 C         

     21   S      47          3047.5248800    0.001834737132
     21   S      48           457.3695180    0.014037322813
     21   S      49           103.9486850    0.068842622264
     21   S      50            29.2101553    0.232184443216
     21   S      51             9.2866630    0.467941348435
     21   S      52             3.1639270    0.362311985337

     22   L      53             7.8682723   -0.119332419775    0.068999066591
     22   L      54             1.8812885   -0.160854151696    0.316423960957
     22   L      55             0.5442493    1.143456437840    0.744308290898

     23   L      56             0.1687145    1.000000000000    1.000000000000

     24   D      57             0.8000000    1.000000000000

 H         

     25   S      58            18.7311370    0.033494604338
     25   S      59             2.8253944    0.234726953484
     25   S      60             0.6401217    0.813757326146

     26   S      61             0.1612778    1.000000000000

 H         

     27   S      62            18.7311370    0.033494604338
     27   S      63             2.8253944    0.234726953484
     27   S      64             0.6401217    0.813757326146

     28   S      65             0.1612778    1.000000000000

 C         

     29   S      66          3047.5248800    0.001834737132
     29   S      67           457.3695180    0.014037322813
     29   S      68           103.9486850    0.068842622264
     29   S      69            29.2101553    0.232184443216
     29   S      70             9.2866630    0.467941348435
     29   S      71             3.1639270    0.362311985337

     30   L      72             7.8682723   -0.119332419775    0.068999066591
     30   L      73             1.8812885   -0.160854151696    0.316423960957
     30   L      74             0.5442493    1.143456437840    0.744308290898

     31   L      75             0.1687145    1.000000000000    1.000000000000

     32   D      76             0.8000000    1.000000000000

 H         

     33   S      77            18.7311370    0.033494604338
     33   S      78             2.8253944    0.234726953484
     33   S      79             0.6401217    0.813757326146

     34   S      80             0.1612778    1.000000000000

 H         

     35   S      81            18.7311370    0.033494604338
     35   S      82             2.8253944    0.234726953484
     35   S      83             0.6401217    0.813757326146

     36   S      84             0.1612778    1.000000000000

 C         

     37   S      85          3047.5248800    0.001834737132
     37   S      86           457.3695180    0.014037322813
     37   S      87           103.9486850    0.068842622264
     37   S      88            29.2101553    0.232184443216
     37   S      89             9.2866630    0.467941348435
     37   S      90             3.1639270    0.362311985337

     38   L      91             7.8682723   -0.119332419775    0.068999066591
     38   L      92             1.8812885   -0.160854151696    0.316423960957
     38   L      93             0.5442493    1.143456437840    0.744308290898

     39   L      94             0.1687145    1.000000000000    1.000000000000

     40   D      95             0.8000000    1.000000000000

 H         

     41   S      96            18.7311370    0.033494604338
     41   S      97             2.8253944    0.234726953484
     41   S      98             0.6401217    0.813757326146

     42   S      99             0.1612778    1.000000000000

 H         

     43   S     100            18.7311370    0.033494604338
     43   S     101             2.8253944    0.234726953484
     43   S     102             0.6401217    0.813757326146

     44   S     103             0.1612778    1.000000000000

 TOTAL NUMBER OF BASIS SET SHELLS             =   44
 NUMBER OF CARTESIAN GAUSSIAN BASIS FUNCTIONS =   99
 NUMBER OF ELECTRONS                          =   42
 CHARGE OF MOLECULE                           =    0
 SPIN MULTIPLICITY                            =    1
 NUMBER OF OCCUPIED ORBITALS (ALPHA)          =   21
 NUMBER OF OCCUPIED ORBITALS (BETA )          =   21
 TOTAL NUMBER OF ATOMS                        =   17
 THE NUCLEAR REPULSION ENERGY IS      185.1563931632

     $CONTRL OPTIONS
     ---------------
 SCFTYP=RHF          RUNTYP=OPTIMIZE     EXETYP=RUN     
 MPLEVL=       0     CITYP =NONE         CCTYP =NONE         VBTYP =NONE    
 DFTTYP=NONE         TDDFT =NONE    
 MULT  =       1     ICHARG=       0     NZVAR =      45     COORD =PRINAXIS
 PP    =NONE         RELWFN=NONE         LOCAL =NONE         NUMGRD=       F
 ISPHER=       0     NOSYM =       0     MAXIT =     200     UNITS =ANGS    
 PLTORB=       F     MOLPLT=       F     AIMPAC=       F     FRIEND=        
 NPRINT=       7     IREST =       0     GEOM  =INPUT   
 NORMF =       0     NORMP =       0     ITOL  =      20     ICUT  =       9
 INTTYP=BEST         GRDTYP=BEST         QMTTOL= 1.0E-06

     $SYSTEM OPTIONS
     ---------------
  REPLICATED MEMORY=   110000000 WORDS (ON EVERY NODE).
 DISTRIBUTED MEMDDI=           0 MILLION WORDS IN AGGREGATE,
 MEMDDI DISTRIBUTED OVER   8 PROCESSORS IS           0 WORDS/PROCESSOR.
 TOTAL MEMORY REQUESTED ON EACH PROCESSOR=   110000000 WORDS.
 TIMLIM=       50000.00 MINUTES, OR      34.7 DAYS.
 PARALL= T  BALTYP=  DLB     KDIAG=    0  COREFL= F
 MXSEQ2=     300 MXSEQ3=     150

          ----------------
          PROPERTIES INPUT
          ----------------

     MOMENTS            FIELD           POTENTIAL          DENSITY
 IEMOM =       1   IEFLD =       0   IEPOT =       0   IEDEN =       0
 WHERE =COMASS     WHERE =NUCLEI     WHERE =NUCLEI     WHERE =NUCLEI  
 OUTPUT=BOTH       OUTPUT=BOTH       OUTPUT=BOTH       OUTPUT=BOTH    
 IEMINT=       0   IEFINT=       0                     IEDINT=       0
                                                       MORB  =       0
          EXTRAPOLATION IN EFFECT
          SOSCF IN EFFECT
 ORBITAL PRINTING OPTION: NPREO=     1    99     2     1

     -------------------------------
     INTEGRAL TRANSFORMATION OPTIONS
     -------------------------------
     NWORD  =            0
     CUTOFF = 1.0E-09     MPTRAN =       0
     DIRTRF =       F     AOINTS =DUP     

          ----------------------
          INTEGRAL INPUT OPTIONS
          ----------------------
 NOPK  =       1 NORDER=       0 SCHWRZ=       T


 -----------------------------------------------
  STATISTICS ON AUTOMATIC COORDINATE GENERATION 
 -----------------------------------------------
  NUMBER OF USER SPECIFIED BONDS                             0
  NUMBER OF BONDS                                           16
  NUMBER OF ANGLES                                          30
  NUMBER OF TORSIONS                                        36
  NUMBER OF EXTRA COORD.                                     0
  NUMBER OF EXTRA COORD. FOR CONSTRAINTS                     0
  NUMBER OF CONSTRAINED COORD.                               0

  TOTAL NUMBER OF PRIMITIVES                                82
 -----------------------------------------------

   --- ENCODED Z MATRIX ---
 COORD  TYPE   I   J   K   L   M   N
    1      1    1   4
    2      1    1  15
    3      1    1   2
    4      1    1   3
    5      1    5   8
    6      1    5   7
    7      1    5   9
    8      1    5   6
    9      1    9  12
   10      1    9  11
   11      1    9  10
   12      1   12  15
   13      1   12  14
   14      1   12  13
   15      1   15  16
   16      1   15  17
   17      2    1  15  17
   18      2    1  15  16
   19      2    1  15  12
   20      2    2   1   3
   21      2    2   1   4
   22      2    2   1  15
   23      2    3   1   4
   24      2    3   1  15
   25      2    4   1  15
   26      2    5   9  10
   27      2    5   9  11
   28      2    5   9  12
   29      2    6   5   9
   30      2    6   5   7
   31      2    6   5   8
   32      2    7   5   9
   33      2    7   5   8
   34      2    8   5   9
   35      2    9  12  13
   36      2    9  12  14
   37      2    9  12  15
   38      2   10   9  11
   39      2   10   9  12
   40      2   11   9  12
   41      2   12  15  17
   42      2   12  15  16
   43      2   13  12  14
   44      2   13  12  15
   45      2   14  12  15
   46      2   16  15  17
   47      3    1  15  12  13
   48      3    1  15  12  14
   49      3    1  15  12   9
   50      3    2   1  15  16
   51      3    2   1  15  12
   52      3    2   1  15  17
   53      3    3   1  15  17
   54      3    3   1  15  16
   55      3    3   1  15  12
   56      3    4   1  15  12
   57      3    4   1  15  16
   58      3    4   1  15  17
   59      3    5   9  12  15
   60      3    5   9  12  13
   61      3    5   9  12  14
   62      3    6   5   9  12
   63      3    6   5   9  11
   64      3    6   5   9  10
   65      3    7   5   9  12
   66      3    7   5   9  11
   67      3    7   5   9  10
   68      3    8   5   9  12
   69      3    8   5   9  11
   70      3    8   5   9  10
   71      3    9  12  15  17
   72      3    9  12  15  16
   73      3   10   9  12  15
   74      3   10   9  12  14
   75      3   10   9  12  13
   76      3   11   9  12  15
   77      3   11   9  12  14
   78      3   11   9  12  13
   79      3   13  12  15  17
   80      3   13  12  15  16
   81      3   14  12  15  17
   82      3   14  12  15  16

          INDEP./SYM. INTERNAL COORDINATES
          --------------------------------
 CRD  1=   0.1226 ( 17)  0.1224 ( 18) -0.4442 ( 19)  0.1223 ( 26)  0.1226 ( 27)
          -0.4444 ( 28) -0.1563 ( 35) -0.1562 ( 36)  0.5069 ( 37)  0.1491 ( 39)
           0.1494 ( 40)  0.1492 ( 41)  0.1490 ( 42) -0.1562 ( 44) -0.1562 ( 45)
 CRD  2=   0.2788 (  2)  0.2791 (  7)  0.3813 (  9)  0.3814 ( 12) -0.1076 ( 17)
          -0.1075 ( 18)  0.2164 ( 19) -0.1077 ( 26) -0.1079 ( 27)  0.2175 ( 28)
          -0.1452 ( 35) -0.1452 ( 36)  0.4696 ( 37) -0.1452 ( 44) -0.1452 ( 45)
 CRD  3=  -0.1499 (  2)  0.1494 (  7)  0.1513 ( 17)  0.1509 ( 18) -0.5202 ( 19)
          -0.1189 ( 22) -0.1186 ( 24)  0.1301 ( 25) -0.1504 ( 26) -0.1509 ( 27)
           0.5196 ( 28) -0.1302 ( 29)  0.1185 ( 32)  0.1191 ( 34)  0.1109 ( 38)
          -0.1766 ( 39) -0.1771 ( 40)  0.1771 ( 41)  0.1767 ( 42) -0.1111 ( 46)
 CRD  4=  -0.1060 ( 17)  0.1063 ( 18)  0.2002 ( 22) -0.2005 ( 24) -0.1064 ( 26)
           0.1060 ( 27)  0.2007 ( 32) -0.2005 ( 34) -0.1042 ( 35)  0.1044 ( 36)
          -0.1044 ( 44)  0.1043 ( 45) -0.1655 ( 47) -0.1654 ( 48) -0.3757 ( 49)
           0.1139 ( 51)  0.1140 ( 55)  0.2043 ( 56)  0.3758 ( 59)  0.1655 ( 60)
           0.1656 ( 61) -0.2043 ( 62) -0.1139 ( 65) -0.1138 ( 68) -0.1879 ( 71)
          -0.1880 ( 72)  0.1881 ( 73)  0.1880 ( 76)
 CRD  5=  -0.1679 ( 17)  0.1678 ( 18)  0.1721 ( 22) -0.1721 ( 24)  0.1678 ( 26)
          -0.1678 ( 27) -0.1719 ( 32)  0.1721 ( 34) -0.1960 ( 35)  0.1960 ( 36)
          -0.1679 ( 39)  0.1679 ( 40)  0.1678 ( 41) -0.1679 ( 42)  0.1960 ( 44)
          -0.1959 ( 45) -0.1545 ( 47) -0.1546 ( 48) -0.2637 ( 49) -0.1405 ( 51)
          -0.1405 ( 55) -0.2635 ( 59) -0.1545 ( 60) -0.1545 ( 61) -0.1407 ( 65)
          -0.1408 ( 68) -0.1697 ( 71) -0.1696 ( 72) -0.1694 ( 73) -0.1695 ( 76)
 CRD  6=   0.4887 (  2) -0.4834 (  7)  0.1298 ( 17)  0.1301 ( 18) -0.1739 ( 21)
          -0.1738 ( 23)  0.3035 ( 25) -0.1281 ( 26) -0.1278 ( 27) -0.2964 ( 29)
           0.1711 ( 30)  0.1714 ( 31)
 CRD  7=   0.3749 (  2)  0.3831 (  7)  0.1340 ( 17)  0.1338 ( 18) -0.1649 ( 21)
          -0.1646 ( 23)  0.3849 ( 25)  0.1368 ( 26)  0.1366 ( 27)  0.3867 ( 29)
          -0.1667 ( 30) -0.1672 ( 31) -0.2303 ( 37)
 CRD  8=   0.4838 (  9) -0.4829 ( 12) -0.1177 ( 20)  0.1231 ( 22)  0.1347 ( 24)
          -0.2406 ( 25)  0.2450 ( 29) -0.1234 ( 32)  0.1180 ( 33) -0.1365 ( 34)
           0.1626 ( 35)  0.1660 ( 36) -0.1615 ( 44) -0.1653 ( 45) -0.1074 ( 75)
           0.1070 ( 77) -0.1081 ( 79)  0.1076 ( 82)
 CRD  9=   0.1460 ( 21) -0.3795 ( 22) -0.1482 ( 23)  0.3744 ( 24) -0.1473 ( 30)
           0.1486 ( 31)  0.3797 ( 32) -0.3766 ( 34) -0.1144 ( 35)  0.1093 ( 36)
          -0.1211 ( 39)  0.1192 ( 40)  0.1213 ( 41) -0.1196 ( 42)  0.1149 ( 44)
          -0.1092 ( 45) -0.1300 ( 51) -0.1295 ( 55) -0.1974 ( 56) -0.1973 ( 62)
          -0.1296 ( 65) -0.1294 ( 68)
 CRD 10=  -0.1007 (  1)  0.2437 (  2)  0.2423 (  7) -0.1009 (  8) -0.3357 (  9)
          -0.3370 ( 12) -0.1306 ( 13) -0.1310 ( 14) -0.2239 ( 20)  0.2363 ( 22)
           0.2422 ( 24) -0.2599 ( 25) -0.2604 ( 29)  0.2378 ( 32) -0.2236 ( 33)
           0.2410 ( 34)  0.1026 ( 37)
 CRD 11=  -0.2003 ( 17)  0.2011 ( 18)  0.2569 ( 22) -0.2531 ( 24) -0.1998 ( 26)
           0.2014 ( 27)  0.2560 ( 32) -0.2518 ( 34)  0.2381 ( 39) -0.2396 ( 40)
           0.2382 ( 41) -0.2391 ( 42) -0.1785 ( 51) -0.1788 ( 55) -0.1309 ( 56)
           0.1313 ( 62)  0.1789 ( 65)  0.1792 ( 68)  0.1293 ( 71)  0.1300 ( 72)
          -0.1290 ( 73) -0.1298 ( 76)
 CRD 12=  -0.1459 (  3)  0.1446 (  4)  0.1456 (  5) -0.1445 (  6)  0.1714 ( 13)
          -0.1711 ( 14) -0.1787 ( 17)  0.1782 ( 18)  0.1525 ( 21) -0.2933 ( 22)
          -0.1533 ( 23)  0.2885 ( 24) -0.1792 ( 26)  0.1796 ( 27)  0.1532 ( 30)
          -0.1526 ( 31) -0.2877 ( 32)  0.2924 ( 34)  0.1662 ( 39) -0.1637 ( 40)
           0.1633 ( 41) -0.1655 ( 42) -0.1280 ( 47) -0.1272 ( 48) -0.1626 ( 49)
           0.1623 ( 59)  0.1281 ( 60)  0.1288 ( 61)
 CRD 13=  -0.1155 (  1)  0.1412 (  2) -0.1401 (  7)  0.1157 (  8) -0.2485 (  9)
          -0.1420 ( 10) -0.1425 ( 11)  0.2482 ( 12)  0.1428 ( 15)  0.1420 ( 16)
          -0.1687 ( 19) -0.2189 ( 20)  0.2290 ( 22)  0.2348 ( 24) -0.3217 ( 25)
           0.1687 ( 28)  0.3216 ( 29) -0.2352 ( 32)  0.2186 ( 33) -0.2288 ( 34)
           0.1062 ( 38) -0.1109 ( 39) -0.1142 ( 40)  0.1138 ( 41)  0.1107 ( 42)
          -0.1063 ( 46)
 CRD 14=   0.2092 ( 17) -0.2091 ( 18) -0.2083 ( 26)  0.2083 ( 27) -0.3155 ( 35)
           0.3155 ( 36)  0.1895 ( 39) -0.1896 ( 40) -0.1904 ( 41)  0.1903 ( 42)
           0.3156 ( 44) -0.3156 ( 45)  0.1263 ( 47)  0.1263 ( 48)  0.1256 ( 60)
           0.1257 ( 61) -0.1802 ( 71) -0.1802 ( 72) -0.1805 ( 73) -0.1804 ( 76)
 CRD 15=   0.3090 (  9)  0.1567 ( 10)  0.1564 ( 11)  0.3092 ( 12)  0.2063 ( 13)
           0.2065 ( 14)  0.1566 ( 15)  0.1569 ( 16) -0.2251 ( 19) -0.1423 ( 20)
           0.1424 ( 22)  0.1422 ( 24) -0.2095 ( 25) -0.2251 ( 28) -0.2094 ( 29)
           0.1426 ( 32) -0.1422 ( 33)  0.1422 ( 34)  0.1040 ( 35)  0.1041 ( 36)
          -0.2597 ( 37) -0.1207 ( 38)  0.1322 ( 39)  0.1324 ( 40)  0.1322 ( 41)
           0.1321 ( 42) -0.1506 ( 43)  0.1041 ( 44)  0.1040 ( 45) -0.1208 ( 46)
 CRD 16=  -0.1256 (  3)  0.1256 (  4) -0.1255 (  5)  0.1258 (  6) -0.3263 ( 10)
           0.3267 ( 11)  0.3267 ( 15) -0.3264 ( 16) -0.1367 ( 22)  0.1367 ( 24)
           0.1366 ( 32) -0.1366 ( 34) -0.1835 ( 47) -0.1834 ( 48) -0.1414 ( 49)
           0.1385 ( 51)  0.1385 ( 55)  0.1693 ( 56) -0.1415 ( 59) -0.1835 ( 60)
          -0.1835 ( 61)  0.1692 ( 62)  0.1385 ( 65)  0.1385 ( 68)
 CRD 17=   0.2048 (  1)  0.2135 (  3)  0.2137 (  4) -0.4574 (  5) -0.4571 (  6)
          -0.1530 (  7) -0.4392 (  8)  0.1744 ( 29) -0.1784 ( 30) -0.1784 ( 31)
           0.1588 ( 32) -0.1657 ( 33)  0.1586 ( 34)
 CRD 18=  -0.4400 (  1) -0.1531 (  2) -0.4573 (  3) -0.4574 (  4) -0.2139 (  5)
          -0.2137 (  6) -0.2061 (  8) -0.1662 ( 20) -0.1782 ( 21)  0.1592 ( 22)
          -0.1782 ( 23)  0.1592 ( 24)  0.1737 ( 25)
 CRD 19=   0.3187 ( 10) -0.3187 ( 11) -0.4250 ( 13)  0.4248 ( 14)  0.3188 ( 15)
          -0.3187 ( 16)  0.1052 ( 56) -0.1050 ( 62)  0.1296 ( 71)  0.1296 ( 72)
          -0.1296 ( 73) -0.1296 ( 76)
 CRD 20=  -0.1138 ( 10)  0.1133 ( 11)  0.1132 ( 15) -0.1135 ( 16) -0.1638 ( 17)
           0.1639 ( 18)  0.1639 ( 26) -0.1639 ( 27) -0.1628 ( 35)  0.1627 ( 36)
          -0.1199 ( 39)  0.1201 ( 40)  0.1200 ( 41) -0.1199 ( 42)  0.1627 ( 44)
          -0.1627 ( 45)  0.1160 ( 50)  0.1160 ( 52)  0.1160 ( 53)  0.1160 ( 54)
           0.1139 ( 57)  0.1139 ( 58)  0.1133 ( 63)  0.1133 ( 64)  0.1161 ( 66)
           0.1161 ( 67)  0.1165 ( 69)  0.1164 ( 70)  0.1270 ( 71)  0.1271 ( 72)
           0.1272 ( 73)  0.2178 ( 74)  0.2177 ( 75)  0.1270 ( 76)  0.2176 ( 77)
           0.2175 ( 78)  0.2176 ( 79)  0.2178 ( 80)  0.2176 ( 81)  0.2178 ( 82)
 CRD 21=  -0.2798 (  5) -0.3068 (  6)  0.6275 (  8) -0.1707 ( 10) -0.1693 ( 11)
          -0.1019 ( 29)  0.1497 ( 30)  0.1641 ( 31) -0.3257 ( 33)  0.1660 ( 65)
           0.1819 ( 66)  0.1491 ( 67) -0.1704 ( 68) -0.1544 ( 69) -0.1872 ( 70)
 CRD 22=   0.6273 (  1) -0.2993 (  3) -0.2881 (  4) -0.1706 ( 15) -0.1705 ( 16)
          -0.3252 ( 20)  0.1539 ( 21)  0.1597 ( 23) -0.1020 ( 25) -0.1832 ( 50)
          -0.1671 ( 51) -0.1508 ( 52)  0.1850 ( 53)  0.1527 ( 54)  0.1688 ( 55)
 CRD 23=  -0.2913 (  3)  0.2944 (  4)  0.4720 (  5) -0.4600 (  6) -0.1573 ( 21)
           0.1555 ( 23) -0.2518 ( 30)  0.2452 ( 31) -0.1223 ( 56) -0.1180 ( 57)
          -0.1182 ( 58)  0.1932 ( 62)  0.1843 ( 63)  0.1852 ( 64)
 CRD 24=   0.4637 (  3) -0.4685 (  4)  0.2972 (  5) -0.2897 (  6)  0.2505 ( 21)
          -0.2478 ( 23) -0.1587 ( 30)  0.1546 ( 31)  0.1916 ( 56)  0.1812 ( 57)
           0.1816 ( 58)  0.1192 ( 62)  0.1112 ( 63)  0.1117 ( 64)
 CRD 25=  -0.3027 ( 10) -0.3026 ( 11)  0.4522 ( 13)  0.4523 ( 14) -0.2992 ( 15)
          -0.2993 ( 16)  0.1537 ( 43)  0.1207 ( 74) -0.1208 ( 78)  0.1199 ( 80)
          -0.1202 ( 81)
 CRD 26=   0.1047 (  1) -0.1043 (  8) -0.4182 ( 10) -0.4179 ( 11)  0.4186 ( 15)
           0.4189 ( 16) -0.1653 ( 38)  0.1654 ( 46) -0.1088 ( 52)  0.1088 ( 54)
          -0.1090 ( 67)  0.1084 ( 69)
 CRD 27=  -0.1042 (  9)  0.2874 ( 10)  0.2870 ( 11) -0.1045 ( 12)  0.4105 ( 13)
           0.4104 ( 14)  0.2895 ( 15)  0.2895 ( 16)  0.1011 ( 37)  0.1358 ( 38)
           0.1955 ( 43)  0.1368 ( 46) -0.1221 ( 75)  0.1219 ( 77)  0.1223 ( 79)
          -0.1223 ( 82)
 CRD 28=  -0.2289 ( 13)  0.2289 ( 14) -0.1161 ( 47) -0.1160 ( 48) -0.1928 ( 50)
          -0.1390 ( 51) -0.1928 ( 52) -0.1928 ( 53) -0.1928 ( 54) -0.1390 ( 55)
          -0.1163 ( 56) -0.1701 ( 57) -0.1700 ( 58)  0.1159 ( 60)  0.1158 ( 61)
           0.1168 ( 62)  0.1706 ( 63)  0.1706 ( 64)  0.1388 ( 65)  0.1925 ( 66)
           0.1925 ( 67)  0.1386 ( 68)  0.1924 ( 69)  0.1924 ( 70)  0.1663 ( 74)
           0.1663 ( 75)  0.1661 ( 77)  0.1662 ( 78) -0.1662 ( 79) -0.1663 ( 80)
          -0.1662 ( 81) -0.1663 ( 82)
 CRD 29=   0.2956 ( 10) -0.2966 ( 11)  0.3425 ( 13) -0.3426 ( 14)  0.2974 ( 15)
          -0.2969 ( 16) -0.1249 ( 50) -0.1249 ( 52) -0.1249 ( 53) -0.1249 ( 54)
          -0.1385 ( 57) -0.1384 ( 58)  0.1379 ( 63)  0.1379 ( 64)  0.1242 ( 66)
           0.1241 ( 67)  0.1242 ( 69)  0.1241 ( 70) -0.1117 ( 74) -0.1117 ( 75)
          -0.1118 ( 77) -0.1118 ( 78)  0.1121 ( 79)  0.1121 ( 80)  0.1122 ( 81)
           0.1122 ( 82)
 CRD 30=   0.2260 ( 10) -0.2271 ( 11) -0.2258 ( 15)  0.2252 ( 16)  0.1953 ( 50)
           0.1411 ( 51)  0.1953 ( 52)  0.1953 ( 53)  0.1953 ( 54)  0.1411 ( 55)
           0.1576 ( 56)  0.2118 ( 57)  0.2118 ( 58)  0.1582 ( 62)  0.2126 ( 63)
           0.2126 ( 64)  0.1412 ( 65)  0.1957 ( 66)  0.1957 ( 67)  0.1412 ( 68)
           0.1957 ( 69)  0.1957 ( 70) -0.1051 ( 74) -0.1050 ( 75) -0.1051 ( 77)
          -0.1050 ( 78) -0.1047 ( 79) -0.1047 ( 80) -0.1046 ( 81) -0.1046 ( 82)
 CRD 31=  -0.2028 (  1)  0.2029 (  8)  0.1812 ( 17)  0.1811 ( 18)  0.1581 ( 21)
          -0.1087 ( 22)  0.1581 ( 23) -0.1087 ( 24) -0.1479 ( 25) -0.1809 ( 26)
          -0.1812 ( 27)  0.1479 ( 29) -0.1582 ( 30) -0.1582 ( 31)  0.1086 ( 32)
           0.1084 ( 34) -0.1745 ( 35) -0.1746 ( 36)  0.1468 ( 39)  0.1470 ( 40)
          -0.1471 ( 41) -0.1469 ( 42)  0.1745 ( 44)  0.1745 ( 45) -0.1054 ( 52)
           0.1053 ( 54) -0.1053 ( 67)  0.1053 ( 69) -0.1062 ( 71)  0.1063 ( 72)
          -0.1062 ( 73) -0.2034 ( 74)  0.1062 ( 76)  0.2033 ( 78)  0.2034 ( 80)
          -0.2034 ( 81)
 CRD 32=   0.2334 (  1) -0.1720 (  2)  0.1623 (  3)  0.1622 (  4)  0.1625 (  5)
           0.1623 (  6) -0.1724 (  7)  0.2338 (  8) -0.1483 (  9) -0.1482 ( 12)
          -0.1256 ( 17) -0.1255 ( 18) -0.1559 ( 20) -0.2122 ( 21)  0.1753 ( 22)
          -0.2122 ( 23)  0.1753 ( 24)  0.1958 ( 25) -0.1255 ( 26) -0.1256 ( 27)
           0.1961 ( 29) -0.2126 ( 30) -0.2126 ( 31)  0.1754 ( 32) -0.1555 ( 33)
           0.1752 ( 34)  0.1105 ( 39)  0.1108 ( 40)  0.1108 ( 41)  0.1106 ( 42)
          -0.1007 ( 74)  0.1007 ( 78) -0.1007 ( 80)  0.1007 ( 81)
 CRD 33=   0.3585 (  2) -0.1790 (  3) -0.1790 (  4)  0.1791 (  5)  0.1790 (  6)
          -0.3584 (  7) -0.1031 (  9)  0.1033 ( 12)  0.2116 ( 20)  0.1403 ( 21)
          -0.1571 ( 22)  0.1403 ( 23) -0.1571 ( 24) -0.1491 ( 25)  0.1493 ( 29)
          -0.1403 ( 30) -0.1404 ( 31)  0.1569 ( 32) -0.2111 ( 33)  0.1568 ( 34)
           0.1552 ( 35)  0.1552 ( 36) -0.1553 ( 44) -0.1552 ( 45)
 CRD 34=   0.1321 (  1)  0.2637 (  2) -0.1579 (  3) -0.1570 (  4) -0.1584 (  5)
          -0.1576 (  6)  0.2635 (  7)  0.1329 (  8) -0.2196 (  9) -0.2192 ( 12)
           0.2190 ( 20)  0.2192 ( 33) -0.1206 ( 38)  0.1586 ( 39)  0.1582 ( 40)
           0.1581 ( 41)  0.1585 ( 42) -0.1205 ( 46)  0.2237 ( 52) -0.2243 ( 54)
          -0.1260 ( 57)  0.1263 ( 58)  0.1262 ( 63) -0.1262 ( 64) -0.2248 ( 67)
           0.2240 ( 69)
 CRD 35=   0.1279 (  3) -0.1277 (  4) -0.1271 (  5)  0.1273 (  6)  0.1963 ( 10)
          -0.1956 ( 11)  0.2183 ( 13) -0.2184 ( 14)  0.1961 ( 15) -0.1965 ( 16)
           0.1503 ( 50)  0.1501 ( 52)  0.1504 ( 53)  0.1507 ( 54) -0.1499 ( 66)
          -0.1502 ( 67) -0.1498 ( 69) -0.1501 ( 70)  0.2068 ( 74)  0.2066 ( 75)
           0.2064 ( 77)  0.2063 ( 78) -0.2066 ( 79) -0.2068 ( 80) -0.2065 ( 81)
          -0.2067 ( 82)
 CRD 36=  -0.2216 (  3)  0.2223 (  4) -0.2213 (  5)  0.2223 (  6)  0.2095 ( 10)
          -0.2093 ( 11) -0.2087 ( 15)  0.2089 ( 16)  0.1715 ( 21) -0.1717 ( 23)
          -0.1718 ( 30)  0.1715 ( 31)  0.1038 ( 39) -0.1045 ( 40) -0.1043 ( 41)
           0.1038 ( 42) -0.1706 ( 50) -0.1709 ( 52) -0.1705 ( 53) -0.1703 ( 54)
           0.2259 ( 56)  0.2260 ( 62) -0.1707 ( 66) -0.1704 ( 67) -0.1713 ( 69)
          -0.1710 ( 70)
 CRD 37=  -0.2457 (  1)  0.1162 (  3)  0.1170 (  4) -0.1166 (  5) -0.1172 (  6)
           0.2463 (  8) -0.2858 (  9)  0.2866 ( 12) -0.1802 ( 20)  0.1801 ( 33)
           0.1032 ( 35)  0.1034 ( 36) -0.1610 ( 38) -0.1034 ( 44) -0.1033 ( 45)
           0.1612 ( 46) -0.1355 ( 51) -0.2237 ( 52)  0.2231 ( 54)  0.1352 ( 55)
          -0.1354 ( 65) -0.2229 ( 67)  0.1357 ( 68)  0.2233 ( 69)  0.1110 ( 74)
          -0.1115 ( 78) -0.1108 ( 80)  0.1114 ( 81)
 CRD 38=  -0.1302 (  1)  0.2789 (  2)  0.2788 (  7) -0.1299 (  8) -0.1392 (  9)
          -0.1131 ( 10) -0.1133 ( 11) -0.1386 ( 12)  0.1627 ( 13)  0.1628 ( 14)
          -0.1136 ( 15) -0.1135 ( 16) -0.1092 ( 17) -0.1092 ( 18) -0.1093 ( 26)
          -0.1092 ( 27)  0.1849 ( 38) -0.2646 ( 43)  0.1853 ( 46) -0.1227 ( 47)
           0.1228 ( 48)  0.1228 ( 60) -0.1226 ( 61)  0.1233 ( 71) -0.1232 ( 72)
          -0.1230 ( 73) -0.2456 ( 74)  0.1232 ( 76)  0.2459 ( 78) -0.2459 ( 80)
           0.2461 ( 81)
 CRD 39=   0.2217 (  3) -0.2216 (  4) -0.2215 (  5)  0.2213 (  6) -0.1930 ( 13)
           0.1929 ( 14) -0.1691 ( 21) -0.1101 ( 22)  0.1690 ( 23)  0.1102 ( 24)
          -0.1692 ( 30)  0.1691 ( 31) -0.1098 ( 32)  0.1098 ( 34) -0.1610 ( 49)
          -0.2267 ( 56) -0.2239 ( 57) -0.2240 ( 58)  0.1606 ( 59)  0.2271 ( 62)
           0.2239 ( 63)  0.2237 ( 64)
 CRD 40=   0.1766 (  2) -0.2730 (  7)  0.2099 (  8)  0.2592 (  9) -0.2505 ( 12)
           0.1688 ( 26)  0.1691 ( 27) -0.1039 ( 30) -0.1037 ( 31)  0.1040 ( 33)
          -0.1386 ( 35) -0.1383 ( 36) -0.1599 ( 39) -0.1603 ( 40) -0.1062 ( 43)
           0.1535 ( 44)  0.1537 ( 45)  0.1404 ( 60) -0.1406 ( 61) -0.1251 ( 65)
          -0.1834 ( 66)  0.1250 ( 68)  0.1832 ( 70)  0.1264 ( 73)  0.2668 ( 75)
          -0.1262 ( 76) -0.2670 ( 77)  0.1143 ( 79) -0.1141 ( 82)
 CRD 41=   0.2501 (  1) -0.2125 (  2)  0.1361 (  8) -0.1373 (  9)  0.1525 ( 12)
           0.1157 ( 13)  0.1154 ( 14)  0.1560 ( 17)  0.1557 ( 18)  0.1474 ( 20)
          -0.1139 ( 21) -0.1142 ( 23) -0.1157 ( 25)  0.1132 ( 33)  0.1128 ( 37)
          -0.1517 ( 41) -0.1515 ( 42) -0.1860 ( 43) -0.1503 ( 47)  0.1502 ( 48)
           0.2376 ( 50)  0.1575 ( 51) -0.2377 ( 53) -0.1576 ( 55) -0.1573 ( 66)
           0.1570 ( 70) -0.2426 ( 79)  0.2425 ( 82)
 CRD 42=  -0.1476 (  1)  0.1472 (  8)  0.1375 (  9) -0.1341 ( 10) -0.1337 ( 11)
          -0.1373 ( 12)  0.1338 ( 15)  0.1338 ( 16)  0.1598 ( 19) -0.1276 ( 20)
           0.1484 ( 25) -0.1599 ( 28) -0.1484 ( 29)  0.1272 ( 33)  0.2095 ( 38)
          -0.2091 ( 46) -0.2642 ( 50) -0.1218 ( 51)  0.2643 ( 53)  0.1218 ( 55)
          -0.1423 ( 57)  0.1426 ( 58) -0.1424 ( 63)  0.1428 ( 64) -0.1217 ( 65)
          -0.2642 ( 66)  0.1210 ( 68)  0.2638 ( 70) -0.1008 ( 71)  0.1011 ( 72)
          -0.1013 ( 73) -0.1167 ( 75)  0.1010 ( 76)  0.1170 ( 77) -0.1168 ( 79)
           0.1164 ( 82)
 CRD 43=   0.1492 (  3) -0.1463 (  4)  0.1492 (  5) -0.1466 (  6)  0.1647 ( 10)
          -0.1586 ( 11) -0.1583 ( 15)  0.1650 ( 16) -0.1294 ( 17)  0.1296 ( 18)
          -0.1098 ( 21) -0.1285 ( 22)  0.1111 ( 23)  0.1263 ( 24)  0.1297 ( 26)
          -0.1296 ( 27)  0.1113 ( 30) -0.1101 ( 31)  0.1264 ( 32) -0.1284 ( 34)
          -0.1671 ( 47) -0.1594 ( 48) -0.1928 ( 49)  0.1872 ( 51)  0.1913 ( 55)
          -0.2393 ( 57) -0.2333 ( 58) -0.1930 ( 59) -0.1594 ( 60) -0.1670 ( 61)
          -0.2340 ( 63) -0.2394 ( 64)  0.1912 ( 65)  0.1874 ( 68)
 CRD 44=   0.1091 (  2)  0.1090 (  7)  0.2015 (  9) -0.1097 ( 10) -0.1189 ( 11)
           0.2013 ( 12) -0.1356 ( 13) -0.1359 ( 14) -0.1191 ( 15) -0.1097 ( 16)
          -0.1788 ( 19) -0.1787 ( 28) -0.2105 ( 37)  0.1759 ( 38)  0.2082 ( 43)
           0.1758 ( 46)  0.1240 ( 47) -0.1337 ( 48)  0.1702 ( 50) -0.1710 ( 53)
          -0.1108 ( 58) -0.1334 ( 60)  0.1240 ( 61) -0.1108 ( 63) -0.1709 ( 66)
           0.1700 ( 70)  0.1151 ( 71) -0.1129 ( 72) -0.1130 ( 73) -0.2407 ( 75)
           0.1149 ( 76)  0.2446 ( 77)  0.2446 ( 79) -0.2410 ( 82)
 CRD 45=   0.1289 ( 10) -0.1293 ( 11) -0.1673 ( 13)  0.1672 ( 14)  0.1292 ( 15)
          -0.1290 ( 16) -0.1301 ( 35)  0.1302 ( 36)  0.1239 ( 39) -0.1239 ( 40)
           0.1239 ( 41) -0.1239 ( 42) -0.1302 ( 44)  0.1302 ( 45)  0.2140 ( 47)
           0.2139 ( 48) -0.1925 ( 51) -0.1925 ( 55)  0.1314 ( 57)  0.1316 ( 58)
          -0.2141 ( 60) -0.2139 ( 61) -0.1319 ( 63) -0.1314 ( 64)  0.1926 ( 65)
           0.1927 ( 68) -0.2486 ( 71) -0.2484 ( 72)  0.2482 ( 73)  0.2487 ( 76)

 THE DETERMINANT OF THE G MATRIX IS 10**(   -12)


                     --------------------
                     INTERNAL COORDINATES
                     --------------------

                 - - ATOMS - -         COORDINATE      COORDINATE
 NO.   TYPE    I  J  K  L  M  N        (BOHR,RAD)       (ANG,DEG)
 ----------------------------------------------------------------
   1 STRETCH   1  4                     2.0529079       1.0863522
   2 STRETCH   1 15                     2.8884578       1.5285061
   3 STRETCH   1  2                     2.0521250       1.0859378
   4 STRETCH   1  3                     2.0521920       1.0859733
   5 STRETCH   5  8                     2.0541600       1.0870147
   6 STRETCH   5  7                     2.0527348       1.0862606
   7 STRETCH   5  9                     2.8878482       1.5281836
   8 STRETCH   5  6                     2.0515576       1.0856376
   9 STRETCH   9 12                     2.8905353       1.5296055
  10 STRETCH   9 11                     2.0550976       1.0875109
  11 STRETCH   9 10                     2.0566132       1.0883129
  12 STRETCH  12 15                     2.8900738       1.5293613
  13 STRETCH  12 14                     2.0575584       1.0888131
  14 STRETCH  12 13                     2.0578118       1.0889472
  15 STRETCH  15 16                     2.0565958       1.0883037
  16 STRETCH  15 17                     2.0559116       1.0879416
  17 BEND      1 15 17                  1.9085117     109.3496636
  18 BEND      1 15 16                  1.9079998     109.3203386
  19 BEND      1 15 12                  1.9726896     113.0267896
  20 BEND      2  1  3                  1.8794623     107.6852601
  21 BEND      2  1  4                  1.8788681     107.6512117
  22 BEND      2  1 15                  1.9403744     111.1752656
  23 BEND      3  1  4                  1.8793728     107.6801278
  24 BEND      3  1 15                  1.9405601     111.1859055
  25 BEND      4  1 15                  1.9422863     111.2848094
  26 BEND      5  9 10                  1.9078218     109.3101355
  27 BEND      5  9 11                  1.9088008     109.3662303
  28 BEND      5  9 12                  1.9727389     113.0296127
  29 BEND      6  5  9                  1.9426982     111.3084057
  30 BEND      6  5  7                  1.8798738     107.7088373
  31 BEND      6  5  8                  1.8800001     107.7160724
  32 BEND      7  5  9                  1.9402003     111.1652865
  33 BEND      7  5  8                  1.8777453     107.5868825
  34 BEND      8  5  9                  1.9403977     111.1766003
  35 BEND      9 12 13                  1.9069017     109.2574185
  36 BEND      9 12 14                  1.9065466     109.2370724
  37 BEND      9 12 15                  1.9787093     113.3716932
  38 BEND     10  9 11                  1.8544456     106.2519041
  39 BEND     10  9 12                  1.9077978     109.3087593
  40 BEND     11  9 12                  1.9084919     109.3485319
  41 BEND     12 15 17                  1.9088045     109.3664435
  42 BEND     12 15 16                  1.9082629     109.3354079
  43 BEND     13 12 14                  1.8535989     106.2033921
  44 BEND     13 12 15                  1.9069581     109.2606512
  45 BEND     14 12 15                  1.9069566     109.2605652
  46 BEND     16 15 17                  1.8537890     106.2142857
  47 TORSION   1 15 12 13               1.0104957      57.8971377
  48 TORSION   1 15 12 14              -1.0105783     -57.9018687
  49 TORSION   1 15 12  9              -3.1414050    -179.9892507
  50 TORSION   2  1 15 16              -1.0827910     -62.0393544
  51 TORSION   2  1 15 12               1.0468937      59.9825902
  52 TORSION   2  1 15 17              -3.1055435    -177.9345332
  53 TORSION   3  1 15 17               1.0837728      62.0956057
  54 TORSION   3  1 15 16               3.1065252     177.9907845
  55 TORSION   3  1 15 12              -1.0469754     -59.9872710
  56 TORSION   4  1 15 12               3.1411696     179.9757636
  57 TORSION   4  1 15 16               1.0114850      57.9538191
  58 TORSION   4  1 15 17              -1.0112675     -57.9413598
  59 TORSION   5  9 12 15              -3.1412008    -179.9775477
  60 TORSION   5  9 12 13              -1.0098848     -57.8621365
  61 TORSION   5  9 12 14               1.0109294      57.9219897
  62 TORSION   6  5  9 12               3.1414917     179.9942182
  63 TORSION   6  5  9 11              -1.0111040     -57.9319934
  64 TORSION   6  5  9 10               1.0124978      58.0118497
  65 TORSION   7  5  9 12              -1.0459840     -59.9304687
  66 TORSION   7  5  9 11               1.0846055      62.1433197
  67 TORSION   7  5  9 10               3.1082073     178.0871628
  68 TORSION   8  5  9 12               1.0454888      59.9020986
  69 TORSION   8  5  9 11              -3.1071069    -178.0241130
  70 TORSION   8  5  9 10              -1.0835051     -62.0802699
  71 TORSION   9 12 15 17               1.0111963      57.9372786
  72 TORSION   9 12 15 16              -1.0118679     -57.9757588
  73 TORSION  10  9 12 15              -1.0121933     -57.9944070
  74 TORSION  10  9 12 14               3.1399369     179.9051304
  75 TORSION  10  9 12 13               1.1191226      64.1210042
  76 TORSION  11  9 12 15               1.0112218      57.9387438
  77 TORSION  11  9 12 14              -1.1198332     -64.1617188
  78 TORSION  11  9 12 13              -3.1406475    -179.9458450
  79 TORSION  13 12 15 17              -1.1200883     -64.1763331
  80 TORSION  13 12 15 16               3.1400328     179.9106295
  81 TORSION  14 12 15 17              -3.1411622    -179.9753394
  82 TORSION  14 12 15 16               1.1189589      64.1116231

     ------------------------------------------
     THE POINT GROUP IS C1 , NAXIS= 0, ORDER= 1
     ------------------------------------------

     DIMENSIONS OF THE SYMMETRY SUBSPACES ARE
 A   =   99

 ..... DONE SETTING UP THE RUN .....
 CPU     0: STEP CPU TIME=     0.04 TOTAL CPU TIME=        0.0 (    0.0 MIN)
 TOTAL WALL CLOCK TIME=        0.0 SECONDS, CPU UTILIZATION IS 100.00%


          -----------------------------
          STATIONARY POINT LOCATION RUN
          -----------------------------

 OBTAINING INITIAL HESSIAN, HESS=GUESS   
 DIAGONAL GUESS HESSIAN IN INTERNAL COORDS IS
     1  0.3488     2  0.3682     3  0.3491     4  0.3491     5  0.3484
     6  0.3489     7  0.3685     8  0.3493     9  0.3675    10  0.3480
    11  0.3475    12  0.3676    13  0.3472    14  0.3471    15  0.3475
    16  0.3478    17  0.2243    18  0.2243    19  0.2486    20  0.2038
    21  0.2038    22  0.2244    23  0.2038    24  0.2244    25  0.2244
    26  0.2243    27  0.2243    28  0.2486    29  0.2244    30  0.2038
    31  0.2038    32  0.2244    33  0.2037    34  0.2244    35  0.2242
    36  0.2242    37  0.2486    38  0.2036    39  0.2242    40  0.2242
    41  0.2242    42  0.2242    43  0.2035    44  0.2242    45  0.2242
    46  0.2036    47  0.2500    48  0.2500    49  0.2500    50  0.2500
    51  0.2500    52  0.2500    53  0.2500    54  0.2500    55  0.2500
    56  0.2500    57  0.2500    58  0.2500    59  0.2500    60  0.2500
    61  0.2500    62  0.2500    63  0.2500    64  0.2500    65  0.2500
    66  0.2500    67  0.2500    68  0.2500    69  0.2500    70  0.2500
    71  0.2500    72  0.2500    73  0.2500    74  0.2500    75  0.2500
    76  0.2500    77  0.2500    78  0.2500    79  0.2500    80  0.2500
    81  0.2500    82  0.2500
 TRANSFORMING HESSIAN TO SYMMETRY COORDINATES

          PARAMETERS CONTROLLING GEOMETRY SEARCH ARE
          METHOD =QA                  UPHESS =BFGS    
          NNEG   =         0          NFRZ   =         0
          NSTEP  =       200          IFOLOW =         1
          HESS   =GUESS               RESTAR =         F
          IHREP  =         0          HSSEND =         F
          NPRT   =         0          NPUN   =         0
          OPTTOL = 1.000E-06          RMIN   = 1.500E-03
          RMAX   = 1.000E-01          RLIM   = 7.000E-02
          DXMAX  = 3.000E-01          PURIFY =         F
          MOVIE  =         F          TRUPD  =         T
          TRMAX  = 5.000E-01          TRMIN  = 5.000E-02
          ITBMAT =         5          STPT   =         F
          STSTEP = 1.000E-02          PROJCT=          T

 BEGINNING GEOMETRY SEARCH POINT NSERCH=   0 ...

 COORDINATES OF ALL ATOMS ARE (ANGS)
   ATOM   CHARGE       X              Y              Z
 ------------------------------------------------------------
 C           6.0  -2.5503168179   0.3306993135   0.0000056147
 H           1.0  -2.5961208338   0.9694723931  -0.8769960643
 H           1.0  -2.5962489027   0.9700769782   0.8766038382
 H           1.0  -3.4395681444  -0.2933143449  -0.0001743671
 C           6.0   2.5502538336   0.3305306908   0.0000337433
 H           1.0   3.4391968992  -0.2926781208   0.0000905571
 H           1.0   2.5954516336   0.9705143740  -0.8765163375
 H           1.0   2.5953235647   0.9711189591   0.8770835650
 C           6.0   1.2782622746  -0.5164536235  -0.0001788642
 H           1.0   1.2801680392  -1.1688615912   0.8709039170
 H           1.0   1.2801021299  -1.1696598432  -0.8696604622
 C           6.0  -0.0000198619   0.3235986228  -0.0001227460
 H           1.0   0.0001226339   0.9777118590   0.8704758146
 H           1.0   0.0000714373   0.9770051047  -0.8710842612
 C           6.0  -1.2780297360  -0.5164231908   0.0002155246
 H           1.0  -1.2801747203  -1.1695433326  -0.8703213668
 H           1.0  -1.2801060986  -1.1697408849   0.8701515449


                     --------------------
                     INTERNAL COORDINATES
                     --------------------

                 - - ATOMS - -         COORDINATE      COORDINATE
 NO.   TYPE    I  J  K  L  M  N        (BOHR,RAD)       (ANG,DEG)
 ----------------------------------------------------------------
   1 STRETCH   1  4                     2.0529079       1.0863522
   2 STRETCH   1 15                     2.8884578       1.5285061
   3 STRETCH   1  2                     2.0521250       1.0859378
   4 STRETCH   1  3                     2.0521920       1.0859733
   5 STRETCH   5  8                     2.0541600       1.0870147
   6 STRETCH   5  7                     2.0527348       1.0862606
   7 STRETCH   5  9                     2.8878482       1.5281836
   8 STRETCH   5  6                     2.0515576       1.0856376
   9 STRETCH   9 12                     2.8905353       1.5296055
  10 STRETCH   9 11                     2.0550976       1.0875109
  11 STRETCH   9 10                     2.0566132       1.0883129
  12 STRETCH  12 15                     2.8900738       1.5293613
  13 STRETCH  12 14                     2.0575584       1.0888131
  14 STRETCH  12 13                     2.0578118       1.0889472
  15 STRETCH  15 16                     2.0565958       1.0883037
  16 STRETCH  15 17                     2.0559116       1.0879416
  17 BEND      1 15 17                  1.9085117     109.3496636
  18 BEND      1 15 16                  1.9079998     109.3203386
  19 BEND      1 15 12                  1.9726896     113.0267896
  20 BEND      2  1  3                  1.8794623     107.6852601
  21 BEND      2  1  4                  1.8788681     107.6512117
  22 BEND      2  1 15                  1.9403744     111.1752656
  23 BEND      3  1  4                  1.8793728     107.6801278
  24 BEND      3  1 15                  1.9405601     111.1859055
  25 BEND      4  1 15                  1.9422863     111.2848094
  26 BEND      5  9 10                  1.9078218     109.3101355
  27 BEND      5  9 11                  1.9088008     109.3662303
  28 BEND      5  9 12                  1.9727389     113.0296127
  29 BEND      6  5  9                  1.9426982     111.3084057
  30 BEND      6  5  7                  1.8798738     107.7088373
  31 BEND      6  5  8                  1.8800001     107.7160724
  32 BEND      7  5  9                  1.9402003     111.1652865
  33 BEND      7  5  8                  1.8777453     107.5868825
  34 BEND      8  5  9                  1.9403977     111.1766003
  35 BEND      9 12 13                  1.9069017     109.2574185
  36 BEND      9 12 14                  1.9065466     109.2370724
  37 BEND      9 12 15                  1.9787093     113.3716932
  38 BEND     10  9 11                  1.8544456     106.2519041
  39 BEND     10  9 12                  1.9077978     109.3087593
  40 BEND     11  9 12                  1.9084919     109.3485319
  41 BEND     12 15 17                  1.9088045     109.3664435
  42 BEND     12 15 16                  1.9082629     109.3354079
  43 BEND     13 12 14                  1.8535989     106.2033921
  44 BEND     13 12 15                  1.9069581     109.2606512
  45 BEND     14 12 15                  1.9069566     109.2605652
  46 BEND     16 15 17                  1.8537890     106.2142857
  47 TORSION   1 15 12 13               1.0104957      57.8971377
  48 TORSION   1 15 12 14              -1.0105783     -57.9018687
  49 TORSION   1 15 12  9              -3.1414050    -179.9892507
  50 TORSION   2  1 15 16              -1.0827910     -62.0393544
  51 TORSION   2  1 15 12               1.0468937      59.9825902
  52 TORSION   2  1 15 17              -3.1055435    -177.9345332
  53 TORSION   3  1 15 17               1.0837728      62.0956057
  54 TORSION   3  1 15 16               3.1065252     177.9907845
  55 TORSION   3  1 15 12              -1.0469754     -59.9872710
  56 TORSION   4  1 15 12               3.1411696     179.9757636
  57 TORSION   4  1 15 16               1.0114850      57.9538191
  58 TORSION   4  1 15 17              -1.0112675     -57.9413598
  59 TORSION   5  9 12 15              -3.1412008    -179.9775477
  60 TORSION   5  9 12 13              -1.0098848     -57.8621365
  61 TORSION   5  9 12 14               1.0109294      57.9219897
  62 TORSION   6  5  9 12               3.1414917     179.9942182
  63 TORSION   6  5  9 11              -1.0111040     -57.9319934
  64 TORSION   6  5  9 10               1.0124978      58.0118497
  65 TORSION   7  5  9 12              -1.0459840     -59.9304687
  66 TORSION   7  5  9 11               1.0846055      62.1433197
  67 TORSION   7  5  9 10               3.1082073     178.0871628
  68 TORSION   8  5  9 12               1.0454888      59.9020986
  69 TORSION   8  5  9 11              -3.1071069    -178.0241130
  70 TORSION   8  5  9 10              -1.0835051     -62.0802699
  71 TORSION   9 12 15 17               1.0111963      57.9372786
  72 TORSION   9 12 15 16              -1.0118679     -57.9757588
  73 TORSION  10  9 12 15              -1.0121933     -57.9944070
  74 TORSION  10  9 12 14               3.1399369     179.9051304
  75 TORSION  10  9 12 13               1.1191226      64.1210042
  76 TORSION  11  9 12 15               1.0112218      57.9387438
  77 TORSION  11  9 12 14              -1.1198332     -64.1617188
  78 TORSION  11  9 12 13              -3.1406475    -179.9458450
  79 TORSION  13 12 15 17              -1.1200883     -64.1763331
  80 TORSION  13 12 15 16               3.1400328     179.9106295
  81 TORSION  14 12 15 17              -3.1411622    -179.9753394
  82 TORSION  14 12 15 16               1.1189589      64.1116231

          ********************
          1 ELECTRON INTEGRALS
          ********************
 ...... END OF ONE-ELECTRON INTEGRALS ......
 CPU     0: STEP CPU TIME=     0.00 TOTAL CPU TIME=        0.0 (    0.0 MIN)
 TOTAL WALL CLOCK TIME=        0.0 SECONDS, CPU UTILIZATION IS 100.00%

          -------------
          GUESS OPTIONS
          -------------
          GUESS =HUCKEL            NORB  =       0          NORDER=       0
          MIX   =       F          PRTMO =       F          PUNMO =       F
          TOLZ  = 1.0E-08          TOLE  = 1.0E-05
          SYMDEN=       F          PURIFY=       F

 INITIAL GUESS ORBITALS GENERATED BY HUCKEL   ROUTINE.
 HUCKEL GUESS REQUIRES     88679 WORDS.

 SYMMETRIES FOR INITIAL GUESS ORBITALS FOLLOW.   BOTH SET(S).
    21 ORBITALS ARE OCCUPIED (    5 CORE ORBITALS).
     6=A        7=A        8=A        9=A       10=A       11=A       12=A   
    13=A       14=A       15=A       16=A       17=A       18=A       19=A   
    20=A       21=A       22=A       23=A       24=A       25=A       26=A   
    27=A       28=A       29=A       30=A       31=A   
 ...... END OF INITIAL ORBITAL SELECTION ......
 CPU     0: STEP CPU TIME=     0.02 TOTAL CPU TIME=        0.1 (    0.0 MIN)
 TOTAL WALL CLOCK TIME=        0.1 SECONDS, CPU UTILIZATION IS 100.00%

                    ----------------------
                    AO INTEGRAL TECHNOLOGY
                    ----------------------
     S,P,L SHELL ROTATED AXIS INTEGRALS, REPROGRAMMED BY
        KAZUYA ISHIMURA (IMS) AND JOSE SIERRA (SYNSTAR).
     S,P,D,L SHELL ROTATED AXIS INTEGRALS PROGRAMMED BY
        KAZUYA ISHIMURA (INSTITUTE FOR MOLECULAR SCIENCE).
     S,P,D,F,G SHELL TO TOTAL QUARTET ANGULAR MOMENTUM SUM 5,
        ERIC PROGRAM BY GRAHAM FLETCHER (ELORET AND NASA ADVANCED
        SUPERCOMPUTING DIVISION, AMES RESEARCH CENTER).
     S,P,D,F,G,L SHELL GENERAL RYS QUADRATURE PROGRAMMED BY
        MICHEL DUPUIS (PACIFIC NORTHWEST NATIONAL LABORATORY).

          --------------------
          2 ELECTRON INTEGRALS
          --------------------

 THE -PK- OPTION IS OFF, THE INTEGRALS ARE NOT IN SUPERMATRIX FORM.
 STORING   15000 INTEGRALS/RECORD ON DISK, USING 12 BYTES/INTEGRAL.
 TWO ELECTRON INTEGRAL EVALUATION REQUIRES   91386 WORDS OF MEMORY.
 SCHWARZ INEQUALITY OVERHEAD:      4891 INTEGRALS, T=        0.00
 II,JST,KST,LST =  1  1  1  1 NREC =         1 INTLOC =    1
 II,JST,KST,LST =  2  1  1  1 NREC =         1 INTLOC =    1
 II,JST,KST,LST =  3  1  1  1 NREC =         1 INTLOC =    1
 II,JST,KST,LST =  4  1  1  1 NREC =         1 INTLOC =    1
 II,JST,KST,LST =  5  1  1  1 NREC =         1 INTLOC =    1
 II,JST,KST,LST =  6  1  1  1 NREC =         1 INTLOC =  331
 II,JST,KST,LST =  7  1  1  1 NREC =         1 INTLOC =  707
 II,JST,KST,LST =  8  1  1  1 NREC =         1 INTLOC = 1031
 II,JST,KST,LST =  9  1  1  1 NREC =         1 INTLOC = 1031
 II,JST,KST,LST = 10  1  1  1 NREC =         1 INTLOC = 1894
 II,JST,KST,LST = 11  1  1  1 NREC =         1 INTLOC = 2426
 II,JST,KST,LST = 12  1  1  1 NREC =         1 INTLOC = 2476
 II,JST,KST,LST = 13  1  1  1 NREC =         1 INTLOC = 2768
 II,JST,KST,LST = 14  1  1  1 NREC =         1 INTLOC = 6259
 II,JST,KST,LST = 15  1  1  1 NREC =         1 INTLOC =14427
 II,JST,KST,LST = 16  1  1  1 NREC =         1 INTLOC =14427
 II,JST,KST,LST = 17  1  1  1 NREC =         1 INTLOC =14427
 II,JST,KST,LST = 18  1  1  1 NREC =         2 INTLOC =   22
 II,JST,KST,LST = 19  1  1  1 NREC =         2 INTLOC = 3059
 II,JST,KST,LST = 20  1  1  1 NREC =         2 INTLOC = 6765
 II,JST,KST,LST = 21  1  1  1 NREC =         2 INTLOC = 8638
 II,JST,KST,LST = 22  1  1  1 NREC =         2 INTLOC =11106
 II,JST,KST,LST = 23  1  1  1 NREC =         3 INTLOC = 1618
 II,JST,KST,LST = 24  1  1  1 NREC =         3 INTLOC = 9871
 II,JST,KST,LST = 25  1  1  1 NREC =         7 INTLOC =11421
 II,JST,KST,LST = 26  1  1  1 NREC =         7 INTLOC =11421
 II,JST,KST,LST = 27  1  1  1 NREC =         7 INTLOC =11421
 II,JST,KST,LST = 28  1  1  1 NREC =         8 INTLOC = 2755
 II,JST,KST,LST = 29  1  1  1 NREC =         8 INTLOC =14985
 II,JST,KST,LST = 30  1  1  1 NREC =         9 INTLOC = 4085
 II,JST,KST,LST = 31  1  1  1 NREC =        10 INTLOC = 8630
 II,JST,KST,LST = 32  1  1  1 NREC =        16 INTLOC = 5341
 II,JST,KST,LST = 33  1  1  1 NREC =        19 INTLOC = 6251
 II,JST,KST,LST = 34  1  1  1 NREC =        20 INTLOC = 7680
 II,JST,KST,LST = 35  1  1  1 NREC =        22 INTLOC = 2001
 II,JST,KST,LST = 36  1  1  1 NREC =        24 INTLOC = 2251
 II,JST,KST,LST = 37  1  1  1 NREC =        28 INTLOC = 1898
 II,JST,KST,LST = 38  1  1  1 NREC =        28 INTLOC = 8008
 II,JST,KST,LST = 39  1  1  1 NREC =        34 INTLOC = 2513
 II,JST,KST,LST = 40  1  1  1 NREC =        39 INTLOC = 8910
 II,JST,KST,LST = 41  1  1  1 NREC =        59 INTLOC = 1417
 II,JST,KST,LST = 42  1  1  1 NREC =        59 INTLOC = 1417
 II,JST,KST,LST = 43  1  1  1 NREC =        62 INTLOC = 4631
 II,JST,KST,LST = 44  1  1  1 NREC =        66 INTLOC =   17
 SCHWARZ INEQUALITY TEST SKIPPED      111125 INTEGRAL BLOCKS.
 TOTAL NUMBER OF NONZERO TWO-ELECTRON INTEGRALS =             8469920
        569 INTEGRAL RECORDS WERE STORED ON DISK FILE  8.
  ...... END OF TWO-ELECTRON INTEGRALS .....
 CPU     0: STEP CPU TIME=     0.11 TOTAL CPU TIME=        0.2 (    0.0 MIN)
 TOTAL WALL CLOCK TIME=        0.2 SECONDS, CPU UTILIZATION IS 100.00%

          --------------------------
                 RHF SCF CALCULATION
          --------------------------

     NUCLEAR ENERGY =       185.1563931632
     MAXIT =  200     NPUNCH=    2
     EXTRAP=T  DAMP=F  SHIFT=F  RSTRCT=F  DIIS=F  DEM=F  SOSCF=T
     DENSITY MATRIX CONV=  1.00E-08
     SOSCF WILL OPTIMIZE    1638 ORBITAL ROTATIONS, SOGTOL=   0.250
     MEMORY REQUIRED FOR RHF ITERS=    106545 WORDS.

 ITER EX DEM     TOTAL ENERGY        E CHANGE  DENSITY CHANGE     ORB. GRAD
   1  0  0     -195.8727381442  -195.8727381442   0.140675511   0.000000000
          ---------------START SECOND ORDER SCF---------------
   2  1  0     -196.3053357918    -0.4325976476   0.051886810   0.032988209
   3  2  0     -196.3291782490    -0.0238424573   0.019042233   0.012179800
   4  3  0     -196.3329644415    -0.0037861925   0.006417016   0.002223760
   5  4  0     -196.3330890232    -0.0001245817   0.001391938   0.000555499
   6  5  0     -196.3330942430    -0.0000052198   0.000258621   0.000131245
   7  6  0     -196.3330947783    -0.0000005353   0.000092177   0.000025607
   8  7  0     -196.3330948019    -0.0000000236   0.000017411   0.000005932
   9  8  0     -196.3330948035    -0.0000000016   0.000003071   0.000001212
  10  9  0     -196.3330948035    -0.0000000001   0.000000958   0.000000323
  11 10  0     -196.3330948035    -0.0000000000   0.000000166   0.000000083
  12 11  0     -196.3330948035    -0.0000000000   0.000000055   0.000000015
  13 12  0     -196.3330948035    -0.0000000000   0.000000000   0.000000005

          -----------------
          DENSITY CONVERGED
          -----------------
     TIME TO FORM FOCK OPERATORS=       0.2 SECONDS (       0.0 SEC/ITER)
     TIME TO SOLVE SCF EQUATIONS=       0.0 SECONDS (       0.0 SEC/ITER)

 FINAL RHF ENERGY IS     -196.3330948035 AFTER  13 ITERATIONS

          ------------
          EIGENVECTORS
          ------------

                      1          2          3          4          5
                  -11.2134   -11.2133   -11.2111   -11.2072   -11.2072
                     A          A          A          A          A   
    1  C  1  S    0.041820  -0.021087  -0.011628  -0.011787   0.994504
    2  C  1  S    0.001168  -0.000763  -0.000504  -0.000353   0.028506
    3  C  1  X    0.000048  -0.000063  -0.000108  -0.000022   0.000042
    4  C  1  Y   -0.000015  -0.000017  -0.000018   0.000001   0.000035
    5  C  1  Z   -0.000000   0.000000  -0.000000  -0.000000  -0.000000
    6  C  1  S    0.003449  -0.000718  -0.000051   0.000245  -0.015517
    7  C  1  X    0.001578  -0.000185  -0.000115   0.000090  -0.000820
    8  C  1  Y   -0.000822   0.000484   0.000362  -0.000088   0.000220
    9  C  1  Z   -0.000000   0.000000   0.000000   0.000000   0.000001
   10  C  1 XX   -0.000404   0.000194   0.000043   0.000018  -0.001841
   11  C  1 YY   -0.000348   0.000100   0.000038   0.000031  -0.001818
   12  C  1 ZZ   -0.000185   0.000036  -0.000054   0.000008  -0.001810
   13  C  1 XY    0.000194  -0.000111  -0.000000  -0.000007   0.000037
   14  C  1 XZ   -0.000000   0.000000  -0.000000   0.000000   0.000000
   15  C  1 YZ    0.000000  -0.000000  -0.000000  -0.000000   0.000000
   16  H  2  S   -0.000162   0.000016   0.000007  -0.000010   0.000164
   17  H  2  S    0.000042  -0.000131  -0.000304   0.000014   0.002674
   18  H  3  S   -0.000162   0.000015   0.000007  -0.000010   0.000164
   19  H  3  S    0.000043  -0.000131  -0.000304   0.000014   0.002673
   20  H  4  S   -0.000121   0.000050  -0.000003  -0.000008   0.000122
   21  H  4  S    0.000073   0.000149   0.000218   0.000023   0.002438
   22  C  5  S    0.019899   0.043366  -0.012055   0.994458   0.011721
   23  C  5  S    0.000447   0.001347  -0.000517   0.028503   0.000321
   24  C  5  X    0.000002  -0.000078   0.000109  -0.000043   0.000021
   25  C  5  Y   -0.000022   0.000004  -0.000018   0.000035   0.000001
   26  C  5  Z   -0.000000  -0.000000   0.000000  -0.000001   0.000000
   27  C  5  S    0.002241   0.002704  -0.000057  -0.015521  -0.000121
   28  C  5  X   -0.001118  -0.001130   0.000118   0.000827  -0.000071
   29  C  5  Y   -0.000340  -0.000889   0.000366   0.000219  -0.000083
   30  C  5  Z   -0.000000   0.000000  -0.000000   0.000002  -0.000000
   31  C  5 XX   -0.000196  -0.000405   0.000045  -0.001838  -0.000026
   32  C  5 YY   -0.000210  -0.000296   0.000040  -0.001817  -0.000012
   33  C  5 ZZ   -0.000123  -0.000145  -0.000053  -0.001811  -0.000035
   34  C  5 XY   -0.000082  -0.000208   0.000001  -0.000038   0.000006
   35  C  5 XZ   -0.000000  -0.000000   0.000000  -0.000000   0.000000
   36  C  5 YZ   -0.000000  -0.000000   0.000000  -0.000001  -0.000000
   37  H  6  S   -0.000063  -0.000115  -0.000002   0.000120  -0.000005
   38  H  6  S    0.000151  -0.000068   0.000218   0.002437   0.000080
   39  H  7  S   -0.000117  -0.000113   0.000008   0.000165  -0.000006
   40  H  7  S   -0.000047   0.000129  -0.000306   0.002673   0.000077
   41  H  8  S   -0.000116  -0.000113   0.000008   0.000166  -0.000006
   42  H  8  S   -0.000047   0.000129  -0.000305   0.002669   0.000077
   43  C  9  S    0.418937   0.891837  -0.135813  -0.049196  -0.000938
   44  C  9  S    0.011959   0.025665  -0.003820  -0.001290  -0.000156
   45  C  9  X    0.000082  -0.000014  -0.000107   0.000009   0.000009
   46  C  9  Y    0.000053   0.000027  -0.000020  -0.000018   0.000011
   47  C  9  Z    0.000000   0.000000  -0.000000  -0.000000  -0.000000
   48  C  9  S   -0.006834  -0.015416   0.006290   0.004262   0.001048
   49  C  9  X   -0.000362   0.000328  -0.001630   0.001646  -0.000604
   50  C  9  Y   -0.000671  -0.000465   0.001159   0.000946   0.000135
   51  C  9  Z   -0.000001  -0.000003   0.000001   0.000000   0.000000
   52  C  9 XX   -0.000793  -0.001500  -0.000118  -0.000280  -0.000011
   53  C  9 YY   -0.000760  -0.001469  -0.000040  -0.000168  -0.000047
   54  C  9 ZZ   -0.000715  -0.001370   0.000128  -0.000010  -0.000044
   55  C  9 XY    0.000045   0.000026   0.000189  -0.000158  -0.000033
   56  C  9 XZ   -0.000000   0.000000   0.000000  -0.000000  -0.000000
   57  C  9 YZ    0.000001   0.000001  -0.000000   0.000000   0.000000
   58  H 10  S    0.000059   0.000212  -0.000174  -0.000136  -0.000050
   59  H 10  S    0.000908   0.002617  -0.000311  -0.000080  -0.000034
   60  H 11  S    0.000059   0.000210  -0.000173  -0.000136  -0.000050
   61  H 11  S    0.000908   0.002619  -0.000311  -0.000080  -0.000034
   62  C 12  S    0.178427   0.065009   0.977557   0.005318   0.005303
   63  C 12  S    0.005123   0.001866   0.028063  -0.000014  -0.000019
   64  C 12  X   -0.000023   0.000065  -0.000000  -0.000128   0.000125
   65  C 12  Y    0.000029   0.000010  -0.000015  -0.000055  -0.000057
   66  C 12  Z   -0.000000  -0.000000  -0.000000   0.000000   0.000000
   67  C 12  S    0.002810   0.000940  -0.018370  -0.000136  -0.000130
   68  C 12  X   -0.000862   0.002462  -0.000007   0.000706  -0.000692
   69  C 12  Y   -0.001491  -0.000519   0.001029   0.000649   0.000662
   70  C 12  Z    0.000001   0.000001   0.000001  -0.000000  -0.000000
   71  C 12 XX   -0.000729  -0.000259  -0.001509  -0.000018  -0.000019
   72  C 12 YY   -0.000651  -0.000232  -0.001523  -0.000047  -0.000049
   73  C 12 ZZ   -0.000425  -0.000153  -0.001499  -0.000066  -0.000068
   74  C 12 XY   -0.000081   0.000231  -0.000000  -0.000037   0.000036
   75  C 12 XZ    0.000000  -0.000000  -0.000000   0.000000  -0.000000
   76  C 12 YZ    0.000000  -0.000000  -0.000000   0.000000  -0.000000
   77  H 13  S   -0.000156  -0.000054   0.000271  -0.000049  -0.000051
   78  H 13  S    0.000555   0.000201   0.002762  -0.000278  -0.000284
   79  H 14  S   -0.000156  -0.000054   0.000271  -0.000049  -0.000051
   80  H 14  S    0.000556   0.000202   0.002763  -0.000278  -0.000284
   81  C 15  S    0.884341  -0.435668  -0.132491   0.000205  -0.048258
   82  C 15  S    0.025370  -0.012597  -0.003723  -0.000126  -0.001266
   83  C 15  X   -0.000056  -0.000062   0.000107  -0.000008  -0.000010
   84  C 15  Y    0.000058   0.000012  -0.000020   0.000011  -0.000017
   85  C 15  Z   -0.000000   0.000000   0.000000   0.000000   0.000000
   86  C 15  S   -0.014972   0.007803   0.006233   0.000949   0.004265
   87  C 15  X    0.000077   0.000489   0.001628   0.000642  -0.001634
   88  C 15  Y   -0.000815  -0.000051   0.001158   0.000113   0.000944
   89  C 15  Z    0.000002  -0.000001  -0.000001  -0.000000  -0.000001
   90  C 15 XX   -0.001555   0.000676  -0.000124  -0.000004  -0.000281
   91  C 15 YY   -0.001510   0.000672  -0.000045  -0.000043  -0.000171
   92  C 15 ZZ   -0.001414   0.000624   0.000123  -0.000044  -0.000012
   93  C 15 XY   -0.000050  -0.000009  -0.000189   0.000029   0.000158
   94  C 15 XZ    0.000000  -0.000000   0.000000  -0.000000  -0.000000
   95  C 15 YZ   -0.000001   0.000000   0.000000   0.000000   0.000000
   96  H 16  S    0.000179  -0.000129  -0.000173  -0.000047  -0.000137
   97  H 16  S    0.002343  -0.001479  -0.000301  -0.000032  -0.000079
   98  H 17  S    0.000178  -0.000129  -0.000173  -0.000047  -0.000137
   99  H 17  S    0.002343  -0.001479  -0.000301  -0.000032  -0.000079

                      6          7          8          9         10
                   -1.0791    -1.0147    -0.9201    -0.8219    -0.7867
                     A          A          A          A          A   
    1  C  1  S   -0.063066  -0.107042  -0.115753   0.084358  -0.033812
    2  C  1  S    0.116916   0.198304   0.214202  -0.156958   0.064333
    3  C  1  X    0.036160   0.033232  -0.025575   0.088960  -0.040484
    4  C  1  Y   -0.017806  -0.021297   0.003963  -0.062393   0.072712
    5  C  1  Z   -0.000006  -0.000013  -0.000026   0.000049  -0.000038
    6  C  1  S    0.092192   0.176256   0.224856  -0.187968   0.076117
    7  C  1  X    0.004312   0.004034  -0.007338   0.027323  -0.013863
    8  C  1  Y   -0.002515  -0.002708   0.003437  -0.021443   0.023746
    9  C  1  Z   -0.000000  -0.000003  -0.000014   0.000023  -0.000013
   10  C  1 XX    0.006148   0.007230   0.002229   0.003412  -0.002863
   11  C  1 YY    0.002745   0.004920   0.005605  -0.003467   0.000004
   12  C  1 ZZ    0.001131   0.003334   0.006629  -0.009595   0.006747
   13  C  1 XY   -0.003594  -0.002791   0.003313  -0.009998   0.006506
   14  C  1 XZ    0.000002   0.000003   0.000002   0.000000  -0.000002
   15  C  1 YZ   -0.000000   0.000001   0.000002  -0.000004   0.000002
   16  H  2  S    0.034576   0.063746   0.082014  -0.083997   0.050512
   17  H  2  S    0.006305   0.013486   0.022596  -0.033021   0.025190
   18  H  3  S    0.034567   0.063731   0.082000  -0.083983   0.050502
   19  H  3  S    0.006302   0.013483   0.022599  -0.033022   0.025186
   20  H  4  S    0.031598   0.063390   0.089047  -0.082238   0.022634
   21  H  4  S    0.004530   0.013058   0.027238  -0.034029   0.009380
   22  C  5  S   -0.063129   0.107015  -0.115662  -0.084450  -0.033850
   23  C  5  S    0.117033  -0.198251   0.214029   0.157119   0.064389
   24  C  5  X   -0.036206   0.033238   0.025544   0.089047   0.040497
   25  C  5  Y   -0.017875   0.021404   0.003782   0.062256   0.072706
   26  C  5  Z   -0.000041   0.000079  -0.000107  -0.000111  -0.000061
   27  C  5  S    0.092302  -0.176249   0.224712   0.188215   0.076261
   28  C  5  X   -0.004323   0.004061   0.007295   0.027309   0.013842
   29  C  5  Y   -0.002515   0.002695   0.003439   0.021453   0.023762
   30  C  5  Z   -0.000008   0.000014  -0.000017  -0.000015  -0.000003
   31  C  5 XX    0.006159  -0.007242   0.002253  -0.003384  -0.002852
   32  C  5 YY    0.002755  -0.004931   0.005616   0.003486   0.000015
   33  C  5 ZZ    0.001114  -0.003299   0.006578   0.009562   0.006736
   34  C  5 XY    0.003592  -0.002780  -0.003325  -0.010025  -0.006520
   35  C  5 XZ    0.000003  -0.000002  -0.000002  -0.000007  -0.000004
   36  C  5 YZ   -0.000003   0.000007  -0.000011  -0.000015  -0.000009
   37  H  6  S    0.031665  -0.063451   0.089102   0.082477   0.022720
   38  H  6  S    0.004532  -0.013063   0.027246   0.034123   0.009424
   39  H  7  S    0.034594  -0.063692   0.081891   0.084028   0.050558
   40  H  7  S    0.006306  -0.013468   0.022561   0.033040   0.025219
   41  H  8  S    0.034543  -0.063592   0.081753   0.083884   0.050481
   42  H  8  S    0.006308  -0.013464   0.022538   0.032995   0.025189
   43  C  9  S   -0.104540   0.098667   0.008395   0.098037   0.078337
   44  C  9  S    0.193633  -0.182709  -0.015631  -0.183069  -0.149017
   45  C  9  X   -0.023882  -0.046449   0.122017   0.045212  -0.030974
   46  C  9  Y    0.031028  -0.023243   0.003039   0.056289   0.128569
   47  C  9  Z   -0.000032   0.000037   0.000008   0.000106   0.000123
   48  C  9  S    0.154943  -0.163863  -0.017431  -0.219254  -0.176576
   49  C  9  X   -0.003487  -0.008722   0.028415   0.016177  -0.009517
   50  C  9  Y    0.004341  -0.002181  -0.000033   0.023038   0.049065
   51  C  9  Z    0.000007  -0.000007  -0.000004   0.000001   0.000007
   52  C  9 XX    0.008162  -0.004593   0.000140   0.006622   0.007725
   53  C  9 YY    0.004223  -0.004311  -0.000107  -0.003754  -0.000876
   54  C  9 ZZ    0.001777  -0.002870  -0.000564  -0.010144  -0.013544
   55  C  9 XY   -0.002475  -0.005316   0.013239   0.006099  -0.004827
   56  C  9 XZ    0.000001  -0.000000  -0.000002  -0.000003  -0.000000
   57  C  9 YZ    0.000011  -0.000012  -0.000002  -0.000026  -0.000031
   58  H 10  S    0.056922  -0.057350  -0.006594  -0.089644  -0.101814
   59  H 10  S    0.009329  -0.010597  -0.002137  -0.032428  -0.046385
   60  H 11  S    0.056992  -0.057426  -0.006610  -0.089838  -0.102058
   61  H 11  S    0.009335  -0.010606  -0.002143  -0.032493  -0.046478
   62  C 12  S   -0.120703  -0.000067   0.108858   0.000041  -0.097754
   63  C 12  S    0.223238   0.000135  -0.202276  -0.000070   0.184683
   64  C 12  X    0.000005  -0.090745   0.000047  -0.119409   0.000021
   65  C 12  Y   -0.035051  -0.000019   0.005415  -0.000032   0.151442
   66  C 12  Z   -0.000015   0.000013   0.000028   0.000044  -0.000065
   67  C 12  S    0.178881   0.000063  -0.207906  -0.000093   0.223184
   68  C 12  X    0.000012  -0.016974   0.000007  -0.031587   0.000005
   69  C 12  Y   -0.004389   0.000019  -0.004057  -0.000011   0.060116
   70  C 12  Z   -0.000008   0.000013   0.000013   0.000025  -0.000012
   71  C 12 XX    0.009515   0.000001   0.000547   0.000002  -0.009465
   72  C 12 YY    0.004687   0.000002  -0.004992  -0.000003   0.001302
   73  C 12 ZZ    0.002044   0.000002  -0.005793  -0.000006   0.016259
   74  C 12 XY    0.000000   0.009670  -0.000008   0.014140   0.000003
   75  C 12 XZ   -0.000005  -0.000001   0.000002  -0.000001   0.000004
   76  C 12 YZ   -0.000001  -0.000002   0.000001  -0.000002   0.000002
   77  H 13  S    0.065863   0.000037  -0.072968  -0.000031   0.123887
   78  H 13  S    0.010628   0.000002  -0.017674  -0.000013   0.055357
   79  H 14  S    0.065887   0.000035  -0.072997  -0.000056   0.123910
[...]
    2             0.011392   0.036800   0.057749   0.060031   0.023315
    3             0.011392   0.036800   0.057749   0.060031   0.023315
    4             0.008928   0.036332   0.071155   0.058539   0.004111
    5             0.165208   0.430039   0.464017   0.313441   0.085968
    6             0.008928   0.036332   0.071155   0.058539   0.004111
    7             0.011392   0.036800   0.057749   0.060031   0.023315
    8             0.011392   0.036800   0.057749   0.060031   0.023315
    9             0.424375   0.370133   0.110627   0.332706   0.318743
   10             0.029927   0.028658   0.000396   0.065266   0.089532
   11             0.029927   0.028658   0.000396   0.065266   0.089532
   12             0.557992   0.065158   0.388877   0.089440   0.468354
   13             0.039856   0.000000   0.043472   0.000000   0.131307
   14             0.039856   0.000000   0.043472   0.000000   0.131307
   15             0.424375   0.370133   0.110628   0.332706   0.318742
   16             0.029927   0.028658   0.000396   0.065266   0.089532
   17             0.029927   0.028658   0.000396   0.065266   0.089532

                     11         12         13         14         15

                  2.000000   2.000000   2.000000   2.000000   2.000000

    1             0.113173   0.329785   0.329499   0.320262   0.517401
    2             0.035215   0.023334   0.110181   0.060171   0.013820
    3             0.035216   0.023330   0.110187   0.060168   0.013818
    4             0.000000   0.166887   0.000000   0.009534   0.304678
    5             0.113175   0.329781   0.329498   0.320261   0.517402
    6             0.000000   0.166885   0.000000   0.009534   0.304679
    7             0.035216   0.023333   0.110183   0.060169   0.013820
    8             0.035217   0.023331   0.110185   0.060170   0.013818
    9             0.309135   0.263453   0.277538   0.287241   0.124600
   10             0.091329   0.033254   0.085932   0.000229   0.003839
   11             0.091329   0.033254   0.085933   0.000229   0.003840
   12             0.408098   0.253410   0.001457   0.396343   0.027873
   13             0.120555   0.000000   0.000000   0.063996   0.004068
   14             0.120555   0.000000   0.000000   0.063994   0.004067
   15             0.309131   0.263454   0.277542   0.287242   0.124599
   16             0.091328   0.033254   0.085934   0.000229   0.003840
   17             0.091327   0.033254   0.085933   0.000229   0.003839

                     16         17         18         19         20

                  2.000000   2.000000   2.000000   2.000000   2.000000

    1             0.390588   0.359348   0.218546   0.121586   0.047968
    2             0.155167   0.075793   0.116263   0.029567   0.034048
    3             0.155172   0.075788   0.116270   0.029565   0.034047
    4             0.000000   0.039150   0.000000   0.017438   0.000000
    5             0.390589   0.359347   0.218548   0.121589   0.047963
    6             0.000000   0.039150   0.000000   0.017437   0.000000
    7             0.155170   0.075791   0.116268   0.029565   0.034045
    8             0.155170   0.075789   0.116268   0.029568   0.034044
    9             0.004671   0.301849   0.281257   0.306658   0.225066
   10             0.001125   0.061957   0.133515   0.081636   0.138564
   11             0.001125   0.061957   0.133511   0.081648   0.138556
   12             0.340169   0.048315   0.001293   0.435571   0.345093
   13             0.122067   0.000000   0.000000   0.114121   0.209192
   14             0.122068   0.000000   0.000000   0.114112   0.209202
   15             0.004671   0.301851   0.281246   0.306657   0.225079
   16             0.001125   0.061957   0.133509   0.081643   0.138563
   17             0.001125   0.061958   0.133505   0.081640   0.138570

                     21

                  2.000000

    1             0.272987
    2             0.000500
    3             0.000500
    4             0.122138
    5             0.272988
    6             0.122140
    7             0.000500
    8             0.000500
    9             0.366045
   10             0.000891
   11             0.000891
   12             0.472095
   13             0.000000
   14             0.000000
   15             0.366041
   16             0.000891
   17             0.000891

               ----- POPULATIONS IN EACH AO -----
                             MULLIKEN      LOWDIN
              1  C  1  S      1.99664     1.98096
              2  C  1  S      0.62830     0.34978
              3  C  1  X      0.68273     0.62198
              4  C  1  Y      0.68595     0.62160
              5  C  1  Z      0.69217     0.62549
              6  C  1  S      0.64418     0.32996
              7  C  1  X      0.31763     0.43245
              8  C  1  Y      0.36087     0.47372
              9  C  1  Z      0.38933     0.49992
             10  C  1 XX      0.00999     0.15597
             11  C  1 YY      0.00616     0.14656
             12  C  1 ZZ      0.01356     0.15494
             13  C  1 XY      0.00141     0.02035
             14  C  1 XZ      0.01686     0.00325
             15  C  1 YZ      0.03250     0.02615
             16  H  2  S      0.52766     0.49454
             17  H  2  S      0.31623     0.35954
             18  H  3  S      0.52766     0.49454
             19  H  3  S      0.31623     0.35954
             20  H  4  S      0.52759     0.49424
             21  H  4  S      0.31179     0.35704
             22  C  5  S      1.99664     1.98096
             23  C  5  S      0.62830     0.34978
             24  C  5  X      0.68273     0.62198
             25  C  5  Y      0.68595     0.62160
             26  C  5  Z      0.69217     0.62549
             27  C  5  S      0.64418     0.32996
             28  C  5  X      0.31763     0.43245
             29  C  5  Y      0.36087     0.47371
             30  C  5  Z      0.38933     0.49992
             31  C  5 XX      0.00999     0.15597
             32  C  5 YY      0.00616     0.14656
             33  C  5 ZZ      0.01356     0.15494
             34  C  5 XY      0.00141     0.02035
             35  C  5 XZ      0.01686     0.00325
             36  C  5 YZ      0.03250     0.02615
             37  H  6  S      0.52759     0.49424
             38  H  6  S      0.31179     0.35705
             39  H  7  S      0.52766     0.49454
             40  H  7  S      0.31623     0.35954
             41  H  8  S      0.52766     0.49454
             42  H  8  S      0.31623     0.35954
             43  C  9  S      1.99683     1.97975
             44  C  9  S      0.62854     0.34508
             45  C  9  X      0.67018     0.61226
             46  C  9  Y      0.67689     0.61514
             47  C  9  Z      0.69182     0.62405
             48  C  9  S      0.60950     0.31033
             49  C  9  X      0.24569     0.36460
             50  C  9  Y      0.32059     0.43333
             51  C  9  Z      0.38365     0.48142
             52  C  9 XX      0.00966     0.15393
             53  C  9 YY      0.00862     0.14488
             54  C  9 ZZ      0.01289     0.15283
             55  C  9 XY      0.00277     0.01983
             56  C  9 XZ      0.01943     0.00602
             57  C  9 YZ      0.02571     0.03121
             58  H 10  S      0.53123     0.50340
             59  H 10  S      0.31539     0.35744
             60  H 11  S      0.53123     0.50340
             61  H 11  S      0.31539     0.35744
             62  C 12  S      1.99684     1.97963
             63  C 12  S      0.62951     0.34729
             64  C 12  X      0.67479     0.61911
             65  C 12  Y      0.67434     0.61329
             66  C 12  Z      0.68893     0.62176
             67  C 12  S      0.60580     0.30971
             68  C 12  X      0.24162     0.35721
             69  C 12  Y      0.32329     0.43516
             70  C 12  Z      0.38486     0.48233
             71  C 12 XX      0.00955     0.15563
             72  C 12 YY      0.00863     0.14536
             73  C 12 ZZ      0.01276     0.15376
             74  C 12 XY      0.00275     0.01972
             75  C 12 XZ      0.01957     0.00602
             76  C 12 YZ      0.02543     0.03149
             77  H 13  S      0.53079     0.50311
             78  H 13  S      0.31842     0.35928
             79  H 14  S      0.53079     0.50311
             80  H 14  S      0.31842     0.35928
             81  C 15  S      1.99683     1.97975
             82  C 15  S      0.62854     0.34508
             83  C 15  X      0.67018     0.61226
             84  C 15  Y      0.67689     0.61514
             85  C 15  Z      0.69182     0.62405
             86  C 15  S      0.60950     0.31033
             87  C 15  X      0.24569     0.36460
             88  C 15  Y      0.32059     0.43333
             89  C 15  Z      0.38365     0.48142
             90  C 15 XX      0.00966     0.15393
             91  C 15 YY      0.00862     0.14488
             92  C 15 ZZ      0.01289     0.15283
             93  C 15 XY      0.00277     0.01983
             94  C 15 XZ      0.01943     0.00602
             95  C 15 YZ      0.02571     0.03121
             96  H 16  S      0.53123     0.50340
             97  H 16  S      0.31539     0.35744
             98  H 17  S      0.53123     0.50340
             99  H 17  S      0.31539     0.35744

          ----- MULLIKEN ATOMIC OVERLAP POPULATIONS -----
          (OFF-DIAGONAL ELEMENTS NEED TO BE MULTIPLIED BY 2)

             1           2           3           4           5

    1    5.0941339
    2    0.3923370   0.5474402
    3    0.3923370  -0.0298054   0.5474402
    4    0.3953745  -0.0282264  -0.0282264   0.5375795
    5   -0.0000925  -0.0000005  -0.0000005   0.0000010   5.0941343
    6    0.0000010   0.0000000   0.0000000  -0.0000000   0.3953745
    7   -0.0000005  -0.0000012   0.0000003   0.0000000   0.3923371
    8   -0.0000005   0.0000003  -0.0000012   0.0000000   0.3923370
    9    0.0040471  -0.0000655  -0.0000656  -0.0000878   0.3428534
   10   -0.0000627  -0.0000009   0.0000123   0.0000009  -0.0403171
   11   -0.0000627   0.0000123  -0.0000009   0.0000009  -0.0403172
   12   -0.0563266  -0.0036629  -0.0036627   0.0044150  -0.0563268
   13   -0.0028137   0.0001440   0.0025317  -0.0000619  -0.0028137
   14   -0.0028138   0.0025318   0.0001440  -0.0000619  -0.0028139
   15    0.3428534  -0.0381352  -0.0381351  -0.0360883   0.0040471
   16   -0.0403171  -0.0029719   0.0042945  -0.0026195  -0.0000627
   17   -0.0403172   0.0042945  -0.0029722  -0.0026193  -0.0000627

             6           7           8           9          10

    6    0.5375799
    7   -0.0282265   0.5474398
    8   -0.0282265  -0.0298051   0.5474400
    9   -0.0360884  -0.0381352  -0.0381350   5.0548863
   10   -0.0026193   0.0042945  -0.0029721   0.4001074   0.5630135
   11   -0.0026195  -0.0029719   0.0042945   0.4001076  -0.0329236
   12    0.0044150  -0.0036629  -0.0036628   0.3543797  -0.0430094
   13   -0.0000619   0.0001440   0.0025317  -0.0415415  -0.0030750
   14   -0.0000619   0.0025318   0.0001440  -0.0415416   0.0046208
   15   -0.0000878  -0.0000656  -0.0000656  -0.0517506  -0.0030982
   16    0.0000009   0.0000123  -0.0000009  -0.0030983   0.0001945
   17    0.0000009  -0.0000009   0.0000123  -0.0030982   0.0024549

            11          12          13          14          15

   11    0.5630136
   12   -0.0430096   5.0874883
   13    0.0046208   0.3964704   0.5661433
   14   -0.0030750   0.3964704  -0.0330127   0.5661436
   15   -0.0030983   0.3543797  -0.0415415  -0.0415415   5.0548864
   16    0.0024549  -0.0430092   0.0046208  -0.0030750   0.4001075
   17    0.0001945  -0.0430095  -0.0030750   0.0046208   0.4001075

            16          17

   16    0.5630136
   17   -0.0329240   0.5630143

          TOTAL MULLIKEN AND LOWDIN ATOMIC POPULATIONS
       ATOM         MULL.POP.    CHARGE          LOW.POP.     CHARGE
    1 C             6.478277   -0.478277         6.443080   -0.443080
    2 H             0.843890    0.156110         0.854075    0.145925
    3 H             0.843890    0.156110         0.854074    0.145926
    4 H             0.839380    0.160620         0.851284    0.148716
    5 C             6.478277   -0.478277         6.443080   -0.443080
    6 H             0.839380    0.160620         0.851285    0.148715
    7 H             0.843890    0.156110         0.854075    0.145925
    8 H             0.843890    0.156110         0.854074    0.145926
    9 C             6.302774   -0.302774         6.274677   -0.274677
   10 H             0.846620    0.153380         0.860849    0.139151
   11 H             0.846621    0.153379         0.860848    0.139152
   12 C             6.298676   -0.298676         6.277453   -0.277453
   13 H             0.849210    0.150790         0.862385    0.137615
   14 H             0.849210    0.150790         0.862386    0.137614
   15 C             6.302774   -0.302774         6.274677   -0.274677
   16 H             0.846620    0.153380         0.860848    0.139152
   17 H             0.846621    0.153379         0.860849    0.139151

          MULLIKEN SPHERICAL HARMONIC POPULATIONS
       ATOM           S       P       D      F      G      H      I    TOTAL
    1 C             3.30    3.13    0.05   0.00   0.00   0.00   0.00    6.48
    2 H             0.84    0.00    0.00   0.00   0.00   0.00   0.00    0.84
    3 H             0.84    0.00    0.00   0.00   0.00   0.00   0.00    0.84
    4 H             0.84    0.00    0.00   0.00   0.00   0.00   0.00    0.84
    5 C             3.30    3.13    0.05   0.00   0.00   0.00   0.00    6.48
    6 H             0.84    0.00    0.00   0.00   0.00   0.00   0.00    0.84
    7 H             0.84    0.00    0.00   0.00   0.00   0.00   0.00    0.84
    8 H             0.84    0.00    0.00   0.00   0.00   0.00   0.00    0.84
    9 C             3.26    2.99    0.05   0.00   0.00   0.00   0.00    6.30
   10 H             0.85    0.00    0.00   0.00   0.00   0.00   0.00    0.85
   11 H             0.85    0.00    0.00   0.00   0.00   0.00   0.00    0.85
   12 C             3.26    2.99    0.05   0.00   0.00   0.00   0.00    6.30
   13 H             0.85    0.00    0.00   0.00   0.00   0.00   0.00    0.85
   14 H             0.85    0.00    0.00   0.00   0.00   0.00   0.00    0.85
   15 C             3.26    2.99    0.05   0.00   0.00   0.00   0.00    6.30
   16 H             0.85    0.00    0.00   0.00   0.00   0.00   0.00    0.85
   17 H             0.85    0.00    0.00   0.00   0.00   0.00   0.00    0.85

          -------------------------------
          BOND ORDER AND VALENCE ANALYSIS     BOND ORDER THRESHOLD=0.050
          -------------------------------

                   BOND                       BOND                       BOND
  ATOM PAIR DIST  ORDER      ATOM PAIR DIST  ORDER      ATOM PAIR DIST  ORDER
    1   2  1.086  0.960        1   3  1.086  0.960        1   4  1.086  0.963
    1  15  1.528  0.980        5   6  1.086  0.963        5   7  1.086  0.960
    5   8  1.086  0.960        5   9  1.528  0.980        9  10  1.088  0.959
    9  11  1.088  0.959        9  12  1.530  0.981       12  13  1.089  0.957
   12  14  1.089  0.957       12  15  1.530  0.981       15  16  1.088  0.959
   15  17  1.088  0.959

                       TOTAL       BONDED        FREE
      ATOM            VALENCE     VALENCE     VALENCE
    1 C                 3.815       3.815       0.000
    2 H                 0.932       0.932       0.000
    3 H                 0.932       0.932       0.000
    4 H                 0.932       0.932      -0.000
    5 C                 3.815       3.815       0.000
    6 H                 0.932       0.932      -0.000
    7 H                 0.932       0.932       0.000
    8 H                 0.932       0.932       0.000
    9 C                 3.797       3.797       0.000
   10 H                 0.929       0.929      -0.000
   11 H                 0.929       0.929       0.000
   12 C                 3.779       3.779       0.000
   13 H                 0.930       0.930       0.000
   14 H                 0.930       0.930      -0.000
   15 C                 3.797       3.797       0.000
   16 H                 0.929       0.929       0.000
   17 H                 0.929       0.929      -0.000

          ---------------------
          ELECTROSTATIC MOMENTS
          ---------------------

 POINT   1           X           Y           Z (BOHR)    CHARGE
                -0.000000   -0.000000   -0.000000        0.00 (A.U.)
         DX          DY          DZ         /D/  (DEBYE)
     0.000002   -0.066274    0.000011    0.066274
 ...... END OF PROPERTY EVALUATION ......
 CPU     0: STEP CPU TIME=     0.03 TOTAL CPU TIME=        9.2 (    0.2 MIN)
 TOTAL WALL CLOCK TIME=        9.5 SECONDS, CPU UTILIZATION IS  96.53%
  $VIB   
          IVIB=   0 IATOM=   0 ICOORD=   0 E=     -196.3330966351
 -4.342606866E-07-3.562304110E-07-7.439685440E-08 1.779457876E-07 2.238578630E-07
  1.701368685E-07 5.387487181E-08 7.380350365E-08-5.916104204E-08 6.795475743E-08
 -5.235033126E-08 3.207481362E-08 1.992620280E-07 2.995311111E-07-1.407416869E-07
 -5.080297900E-08-4.291954304E-08-1.165963853E-08-4.756902146E-08-2.779870183E-08
  1.050127070E-08-1.435832033E-10-1.240043929E-07 8.153998268E-08-2.361053286E-07
 -3.363876331E-07 2.823474811E-08 7.777745481E-08 9.896681495E-08 6.691621036E-08
  1.651998922E-08 3.043306175E-08-1.922459160E-08-1.232583779E-07 7.526415040E-07
  2.164479720E-07 3.044313809E-08-2.854421932E-07 1.917480320E-07 6.918927890E-08
 -3.355274459E-07-2.398725823E-07 3.650504959E-07 5.493631972E-07-4.411700642E-07
 -1.395815442E-07-3.445427252E-07 2.485883609E-07-2.629628084E-08-1.233936781E-07
 -5.996179890E-08
  2.272383461E-06-6.627359594E-02 1.094378193E-05
 ......END OF GEOMETRY SEARCH......
 CPU     0: STEP CPU TIME=     0.00 TOTAL CPU TIME=        9.2 (    0.2 MIN)
 TOTAL WALL CLOCK TIME=        9.5 SECONDS, CPU UTILIZATION IS  96.53%
              1133387  WORDS OF DYNAMIC MEMORY USED
 EXECUTION OF GAMESS TERMINATED NORMALLY Thu Jan 18 12:03:31 2018
 DDI: 263624 bytes (0.3 MB / 0 MWords) used by master data server.

 ----------------------------------------
 CPU timing information for all processes
 ========================================
 0: 8.104 + 1.75 = 9.180
 1: 8.01 + 0.982 = 8.984
 2: 8.32 + 0.982 = 9.15
 3: 8.88 + 0.893 = 8.982
 4: 8.10 + 0.954 = 8.965
 5: 8.22 + 0.911 = 8.934
 6: 8.25 + 0.953 = 8.979
 7: 8.42 + 0.929 = 8.972
 ----------------------------------------
 ddikick.x: exited gracefully.
unset echo
----- accounting info -----
Files used on the master node wr36 were:
-rw-r--r-- 1 kkirsc3m fb03-hpc  1031766 Jan 18 12:03 /tmp/8023.wr0.wr.inf.h-brs.de/molecule-1-gam.dat
-rw-r--r-- 1 kkirsc3m fb03-hpc     1262 Jan 18 12:03 /tmp/8023.wr0.wr.inf.h-brs.de/molecule-1-gam.F05
-rw-r--r-- 1 kkirsc3m fb03-hpc 13681216 Jan 18 12:03 /tmp/8023.wr0.wr.inf.h-brs.de/molecule-1-gam.F08
-rw-r--r-- 1 kkirsc3m fb03-hpc 13861232 Jan 18 12:03 /tmp/8023.wr0.wr.inf.h-brs.de/molecule-1-gam.F08.001
-rw-r--r-- 1 kkirsc3m fb03-hpc 12601120 Jan 18 12:03 /tmp/8023.wr0.wr.inf.h-brs.de/molecule-1-gam.F08.002
-rw-r--r-- 1 kkirsc3m fb03-hpc 10440928 Jan 18 12:03 /tmp/8023.wr0.wr.inf.h-brs.de/molecule-1-gam.F08.003
-rw-r--r-- 1 kkirsc3m fb03-hpc 11881056 Jan 18 12:03 /tmp/8023.wr0.wr.inf.h-brs.de/molecule-1-gam.F08.004
-rw-r--r-- 1 kkirsc3m fb03-hpc 11160992 Jan 18 12:03 /tmp/8023.wr0.wr.inf.h-brs.de/molecule-1-gam.F08.005
-rw-r--r-- 1 kkirsc3m fb03-hpc 13501200 Jan 18 12:03 /tmp/8023.wr0.wr.inf.h-brs.de/molecule-1-gam.F08.006
-rw-r--r-- 1 kkirsc3m fb03-hpc 13501200 Jan 18 12:03 /tmp/8023.wr0.wr.inf.h-brs.de/molecule-1-gam.F08.007
-rw-r--r-- 1 kkirsc3m fb03-hpc  2683040 Jan 18 12:03 /tmp/8023.wr0.wr.inf.h-brs.de/molecule-1-gam.F10
ls: No match.
ls: No match.
ls: No match.
Thu Jan 18 12:03:34 CET 2018
0.188u 0.167s 0:12.92 2.6%	0+0k 8+192io 0pf+0w
