----- GAMESS execution script 'rungms' -----
This job is running on host wr34
under operating system Linux at Thu Jan 18 12:03:21 CET 2018
PBS has assigned the following compute nodes to this run:
wr34
Available scratch disk space (Kbyte units) at beginning of the job is
Filesystem     1K-blocks    Used Available Use% Mounted on
/dev/sda2      379797844 9507496 350991072   3% /
GAMESS temporary binary files will be written to /tmp/8025.wr0.wr.inf.h-brs.de
GAMESS supplementary output files will be written to /tmp/8025.wr0.wr.inf.h-brs.de
Copying input file molecule-3-gam.inp to your run's scratch directory...
cp molecule-3-gam.inp /tmp/8025.wr0.wr.inf.h-brs.de/molecule-3-gam.F05
unset echo
/usr/local/hpc5/gamess-gnu/ddikick.x /usr/local/hpc5/gamess-gnu/gamess.00.x molecule-3-gam -ddi 1 8 wr34:cpus=8:netext=.myri -scr /tmp/8025.wr0.wr.inf.h-brs.de

 Distributed Data Interface kickoff program.
 Initiating 8 compute processes on 1 nodes to run the following command:
 /usr/local/hpc5/gamess-gnu/gamess.00.x molecule-3-gam 

          ******************************************************
          *         GAMESS VERSION =  1 MAY 2013 (R1)          *
          *             FROM IOWA STATE UNIVERSITY             *
          * M.W.SCHMIDT, K.K.BALDRIDGE, J.A.BOATZ, S.T.ELBERT, *
          *   M.S.GORDON, J.H.JENSEN, S.KOSEKI, N.MATSUNAGA,   *
          *          K.A.NGUYEN, S.J.SU, T.L.WINDUS,           *
          *       TOGETHER WITH M.DUPUIS, J.A.MONTGOMERY       *
          *         J.COMPUT.CHEM.  14, 1347-1363(1993)        *
          **************** 64 BIT LINUX VERSION ****************

  SINCE 1993, STUDENTS AND POSTDOCS WORKING AT IOWA STATE UNIVERSITY
  AND ALSO IN THEIR VARIOUS JOBS AFTER LEAVING ISU HAVE MADE IMPORTANT
  CONTRIBUTIONS TO THE CODE:
     IVANA ADAMOVIC, CHRISTINE AIKENS, YURI ALEXEEV, POOJA ARORA,
     ANDREY ASADCHEV, ROB BELL, PRADIPTA BANDYOPADHYAY, JONATHAN BENTZ,
     BRETT BODE, GALINA CHABAN, WEI CHEN, CHEOL HO CHOI, PAUL DAY,
     ALBERT DEFUSCO, TIM DUDLEY, DMITRI FEDOROV, GRAHAM FLETCHER,
     MARK FREITAG, KURT GLAESEMANN, DAN KEMP, GRANT MERRILL,
     NORIYUKI MINEZAWA, JONATHAN MULLIN, TAKESHI NAGATA,
     SEAN NEDD, HEATHER NETZLOFF, BOSILJKA NJEGIC, RYAN OLSON, MIKE PAK,
     JIM SHOEMAKER, LYUDMILA SLIPCHENKO, SAROM SOK, JIE SONG,
     TETSUYA TAKETSUGU, SIMON WEBB, SOOHAENG YOO, FEDERICO ZAHARIEV

  ADDITIONAL CODE HAS BEEN PROVIDED BY COLLABORATORS IN OTHER GROUPS:
     IOWA STATE UNIVERSITY:
          JOE IVANIC, LAIMUTIS BYTAUTAS, KLAUS RUEDENBERG
     UNIVERSITY OF TOKYO: KIMIHIKO HIRAO, TAKAHITO NAKAJIMA,
          TAKAO TSUNEDA, MUNEAKI KAMIYA, SUSUMU YANAGISAWA,
          KIYOSHI YAGI, MAHITO CHIBA, SEIKEN TOKURA, NAOAKI KAWAKAMI
     UNIVERSITY OF AARHUS: FRANK JENSEN
     UNIVERSITY OF IOWA: VISVALDAS KAIRYS, HUI LI
     NATIONAL INST. OF STANDARDS AND TECHNOLOGY: WALT STEVENS, DAVID GARMER
     UNIVERSITY OF PISA: BENEDETTA MENNUCCI, JACOPO TOMASI
     UNIVERSITY OF MEMPHIS: HENRY KURTZ, PRAKASHAN KORAMBATH
     UNIVERSITY OF ALBERTA: TOBY ZENG, MARIUSZ KLOBUKOWSKI
     UNIVERSITY OF NEW ENGLAND: MARK SPACKMAN
     MIE UNIVERSITY: HIROAKI UMEDA
     MICHIGAN STATE UNIVERSITY:
          KAROL KOWALSKI, MARTA WLOCH, JEFFREY GOUR, JESSE LUTZ,
          WEI LI, PIOTR PIECUCH
     UNIVERSITY OF SILESIA: MONIKA MUSIAL, STANISLAW KUCHARSKI
     FACULTES UNIVERSITAIRES NOTRE-DAME DE LA PAIX:
          OLIVIER QUINET, BENOIT CHAMPAGNE
     UNIVERSITY OF CALIFORNIA - SANTA BARBARA: BERNARD KIRTMAN
     INSTITUTE FOR MOLECULAR SCIENCE:
          KAZUYA ISHIMURA, MICHIO KATOUDA, AND SHIGERU NAGASE
     UNIVERSITY OF NOTRE DAME: DAN CHIPMAN
     KYUSHU UNIVERSITY:
          HARUYUKI NAKANO,
          FENG LONG GU, JACEK KORCHOWIEC, MARCIN MAKOWSKI, AND YURIKO AOKI,
          HIROTOSHI MORI AND EISAKU MIYOSHI
     PENNSYLVANIA STATE UNIVERSITY:
          TZVETELIN IORDANOV, CHET SWALINA, JONATHAN SKONE,
          SHARON HAMMES-SCHIFFER
     WASEDA UNIVERSITY:
          MASATO KOBAYASHI, TOMOKO AKAMA, TSUGUKI TOUMA,
          TAKESHI YOSHIKAWA, YASUHIRO IKABATA, HIROMI NAKAI
     NANJING UNIVERSITY: SHUHUA LI
     UNIVERSITY OF NEBRASKA:
          PEIFENG SU, DEJUN SI, NANDUN THELLAMUREGE, YALI WANG, HUI LI
     UNIVERSITY OF ZURICH:
          ROBERTO PEVERATI, KIM BALDRIDGE
     N. COPERNICUS UNIVERSITY AND JACKSON STATE UNIVERSITY:
          MARIA BARYSZ


 PARALLEL VERSION RUNNING ON     8 PROCESSORS IN     1 NODES.

 EXECUTION OF GAMESS BEGUN Thu Jan 18 12:03:21 2018

            ECHO OF THE FIRST FEW INPUT CARDS -
 INPUT CARD> $CONTRL ICHARG=0 NZVAR=45 MPLEVL=0 ISPHER=0                                    
 INPUT CARD>         RUNTYP=OPTIMIZE SCFTYP=RHF EXETYP=RUN                                  
 INPUT CARD>         MULT=1 UNITS=ANGS MAXIT=200                                            
 INPUT CARD>         COORD=PRINAXIS                       $END                              
 INPUT CARD> $BASIS  GBASIS=N31 NGAUSS=6 NDFUNC=1 NPFUNC=0                                  
 INPUT CARD>         DIFFSP=.F.                           $END                              
 INPUT CARD> $SCF    DIRSCF=.F. CONV=1.0E-08              $END                              
 INPUT CARD> $SYSTEM TIMLIM=50000 MWORDS=110 MEMDDI=0 $END                                  
 INPUT CARD> $FORCE  METHOD=SEMINUM VIBANL=.F.            $END                              
 INPUT CARD> $STATPT NSTEP=200 OPTTOL=1.0E-06             $END                              
 INPUT CARD> $GUESS  GUESS=HUCKEL                         $END                              
 INPUT CARD> $ZMAT   AUTO=.TRUE. DLC=.TRUE.               $END                              
 INPUT CARD> $DATA                                                                          
 INPUT CARD> Full optimization                                                              
 INPUT CARD> C1                                                                             
 INPUT CARD> C     6.0      1.899   0.675   0.372                                           
 INPUT CARD> H     1.0      2.280   0.084   1.201                                           
 INPUT CARD> H     1.0      1.268   1.455   0.785                                           
 INPUT CARD> H     1.0      2.746   1.159  -0.104                                           
 INPUT CARD> C     6.0     -1.898   0.685  -0.356                                           
 INPUT CARD> H     1.0     -2.744   1.159   0.132                                           
 INPUT CARD> H     1.0     -1.267   1.475  -0.750                                           
 INPUT CARD> H     1.0     -2.280   0.115  -1.199                                           
 INPUT CARD> C     6.0     -1.143  -0.218   0.621                                           
 INPUT CARD> H     1.0     -1.845  -0.921   1.061                                           
 INPUT CARD> H     1.0     -0.765   0.380   1.446                                           
 INPUT CARD> C     6.0     -0.000  -1.022  -0.013                                           
 INPUT CARD> H     1.0      0.416  -1.685   0.743                                           
 INPUT CARD> H     1.0     -0.417  -1.666  -0.784                                           
 INPUT CARD> C     6.0      1.143  -0.203  -0.627                                           
 INPUT CARD> H     1.0      1.845  -0.897  -1.084                                           
 INPUT CARD> H     1.0      0.766   0.414  -1.437                                           
 INPUT CARD> $END                                                                           
  110000000 WORDS OF MEMORY AVAILABLE

     BASIS OPTIONS
     -------------
     GBASIS=N31          IGAUSS=       6      POLAR=POPN31  
     NDFUNC=       1     NFFUNC=       0     DIFFSP=       F
     NPFUNC=       0      DIFFS=       F     BASNAM=        


     RUN TITLE
     ---------
  Full optimization                                                              

 THE POINT GROUP OF THE MOLECULE IS C1      
 THE ORDER OF THE PRINCIPAL AXIS IS     0

 THE MOMENTS OF INERTIA ARE (AMU-ANGSTROM**2)
 IXX=    63.720   IYY=   179.483   IZZ=   194.555

 ATOM      ATOMIC                      COORDINATES (BOHR)
           CHARGE         X                   Y                   Z
 C           6.0    -3.5915577723       -1.2829213007        0.6682343247
 H           1.0    -4.3205351873       -0.1856145495        2.2444246075
 H           1.0    -2.4029261312       -2.7660362079        1.4370853658
 H           1.0    -5.1868655563       -2.1868952216       -0.2512212789
 C           6.0     3.5911889323       -1.2828768026       -0.6681392454
 H           1.0     5.1851223362       -2.1894028079        0.2517600706
 H           1.0     2.4034087242       -2.7668487798       -1.4375044763
 H           1.0     4.3214258955       -0.1860517777       -2.2438438193
 C           6.0     2.1537195393        0.4003445592        1.1910557266
 H           1.0     3.4752487296        1.7188940329        2.0460603064
 H           1.0     1.4312469725       -0.7489690773        2.7321404206
 C           6.0    -0.0001584100        1.9336595233       -0.0001504800
 H           1.0    -0.7945653278        3.1686908296        1.4394086206
 H           1.0     0.7954209152        3.1686623846       -1.4377269953
 C           6.0    -2.1531599072        0.3997164785       -1.1912106425
 H           1.0    -3.4754457380        1.7213095447       -2.0459346117
 H           1.0    -1.4319212014       -0.7471623692       -2.7321440060

          INTERNUCLEAR DISTANCES (ANGS.)
          ------------------------------

                1 C          2 H          3 H          4 H          5 C     

   1 C       0.0000000    1.0870524 *  1.0849562 *  1.0854681 *  3.8661729  
   2 H       1.0870524 *  0.0000000    1.7540926 *  1.7537976 *  4.4990148  
   3 H       1.0849562 *  1.7540926 *  0.0000000    1.7499774 *  3.4522945  
   4 H       1.0854681 *  1.7537976 *  1.7499774 *  0.0000000    4.6749242  
   5 C       3.8661729    4.4990148    3.4522945    4.6749242    0.0000000  
   6 H       4.6743240    5.2477578    4.0755575    5.4950702    1.0856040 *
   7 H       3.4528886    4.2804779    2.9635874 *  4.0769279    1.0851253 *
   8 H       4.4995202    5.1531118    4.2802056    5.2487748    1.0869558 *
   9 C       3.1801280    3.4849007    2.9391744 *  4.1888035    1.5296938 *
  10 H       4.1278897    4.2479701    3.9258529    5.1730944    2.1424131 *
  11 H       2.8874551 *  3.0691474    2.3928299 *  3.9161795    2.1503297 *
  12 C       2.5757009 *  2.8098811 *  2.8948501 *  3.5079279    2.5756362 *
  13 H       2.8118553 *  2.6102914 *  3.2538082    3.7728829    3.4898850  
  14 H       3.4900534    3.7784301    3.8783536    4.2950662    2.8113602 *
  15 C       1.5298435 *  2.1718016 *  2.1813604 *  2.1675290 *  3.1795701  
  16 H       2.1433702 *  2.5244427 *  3.0590838    2.4493544 *  4.1282874  
  17 H       2.1504165 *  3.0594346    2.5045896 *  2.5004628 *  2.8877150 *

                6 H          7 H          8 H          9 C         10 H     

   1 C       4.6743240    3.4528886    4.4995202    3.1801280    4.1278897  
   2 H       5.2477578    4.2804779    5.1531118    3.4849007    4.2479701  
   3 H       4.0755575    2.9635874 *  4.2802056    2.9391744 *  3.9258529  
   4 H       5.4950702    4.0769279    5.2487748    4.1888035    5.1730944  
   5 C       1.0856040 *  1.0851253 *  1.0869558 *  1.5296938 *  2.1424131 *
   6 H       0.0000000    1.7490880 *  1.7540790 *  2.1675911 *  2.4490084 *
   7 H       1.7490880 *  0.0000000    1.7542434 *  2.1820325 *  3.0585325  
   8 H       1.7540790 *  1.7542434 *  0.0000000    2.1716487 *  2.5239099 *
   9 C       2.1675911 *  2.1820325 *  2.1716487 *  0.0000000    1.0865602 *
  10 H       2.4490084 *  3.0585325    2.5239099 *  1.0865602 *  0.0000000  
  11 H       2.4999756 *  2.5046846 *  3.0596528    1.0867902 *  1.7341355 *
  12 C       3.5081793    2.8954217 *  2.8102962 *  1.5345426 *  2.1372183 *
  13 H       4.2950270    3.8790641    3.7788596    2.1441674 *  2.4076837 *
  14 H       3.7728782    3.2541569    2.6105469 *  2.1442493 *  2.4491292 *
  15 C       4.1880657    2.9392028 *  3.4850017    2.6045201 *  3.5061392  
  16 H       5.1734624    3.9271471    4.2488815    3.5065952    4.2682199  
  17 H       3.9162336    2.3939046 *  3.0698796    2.8773371 *  3.8522136  

               11 H         12 C         13 H         14 H         15 C     

   1 C       2.8874551 *  2.5757009 *  2.8118553 *  3.4900534    1.5298435 *
   2 H       3.0691474    2.8098811 *  2.6102914 *  3.7784301    2.1718016 *
   3 H       2.3928299 *  2.8948501 *  3.2538082    3.8783536    2.1813604 *
   4 H       3.9161795    3.5079279    3.7728829    4.2950662    2.1675290 *
   5 C       2.1503297 *  2.5756362 *  3.4898850    2.8113602 *  3.1795701  
   6 H       2.4999756 *  3.5081793    4.2950270    3.7728782    4.1880657  
   7 H       2.5046846 *  2.8954217 *  3.8790641    3.2541569    2.9392028 *
   8 H       3.0596528    2.8102962 *  3.7788596    2.6105469 *  3.4850017  
   9 C       1.0867902 *  1.5345426 *  2.1441674 *  2.1442493 *  2.6045201 *
  10 H       1.7341355 *  2.1372183 *  2.4076837 *  2.4491292 *  3.5061392  
  11 H       0.0000000    2.1632175 *  2.4805634 *  3.0463289    2.8770961 *
  12 C       2.1632175 *  0.0000000    1.0881916 *  1.0876884 *  1.5343422 *
  13 H       2.4805634 *  1.0881916 *  0.0000000    1.7395341 *  2.1451697 *
  14 H       3.0463289    1.0876884 *  1.7395341 *  0.0000000    2.1444389 *
  15 C       2.8770961 *  1.5343422 *  2.1451697 *  2.1444389 *  0.0000000  
  16 H       3.8527560    2.1369818 *  2.4496763 *  2.4079047 *  1.0877909 *
  17 H       3.2644764    2.1625513 *  3.0464243    2.4803826 *  1.0857799 *

               16 H         17 H     

   1 C       2.1433702 *  2.1504165 *
   2 H       2.5244427 *  3.0594346  
   3 H       3.0590838    2.5045896 *
   4 H       2.4493544 *  2.5004628 *
   5 C       4.1282874    2.8877150 *
   6 H       5.1734624    3.9162336  
   7 H       3.9271471    2.3939046 *
   8 H       4.2488815    3.0698796  
   9 C       3.5065952    2.8773371 *
  10 H       4.2682199    3.8522136  
  11 H       3.8527560    3.2644764  
  12 C       2.1369818 *  2.1625513 *
  13 H       2.4496763 *  3.0464243  
  14 H       2.4079047 *  2.4803826 *
  15 C       1.0877909 *  1.0857799 *
  16 H       0.0000000    1.7342350 *
  17 H       1.7342350 *  0.0000000  

  * ... LESS THAN  3.000


     ATOMIC BASIS SET
     ----------------
 THE CONTRACTED PRIMITIVE FUNCTIONS HAVE BEEN UNNORMALIZED
 THE CONTRACTED BASIS FUNCTIONS ARE NOW NORMALIZED TO UNITY

  SHELL TYPE  PRIMITIVE        EXPONENT          CONTRACTION COEFFICIENT(S)

 C         

      1   S       1          3047.5248800    0.001834737132
      1   S       2           457.3695180    0.014037322813
      1   S       3           103.9486850    0.068842622264
      1   S       4            29.2101553    0.232184443216
      1   S       5             9.2866630    0.467941348435
      1   S       6             3.1639270    0.362311985337

      2   L       7             7.8682723   -0.119332419775    0.068999066591
      2   L       8             1.8812885   -0.160854151696    0.316423960957
      2   L       9             0.5442493    1.143456437840    0.744308290898

      3   L      10             0.1687145    1.000000000000    1.000000000000

      4   D      11             0.8000000    1.000000000000

 H         

      5   S      12            18.7311370    0.033494604338
      5   S      13             2.8253944    0.234726953484
      5   S      14             0.6401217    0.813757326146

      6   S      15             0.1612778    1.000000000000

 H         

      7   S      16            18.7311370    0.033494604338
      7   S      17             2.8253944    0.234726953484
      7   S      18             0.6401217    0.813757326146

      8   S      19             0.1612778    1.000000000000

 H         

      9   S      20            18.7311370    0.033494604338
      9   S      21             2.8253944    0.234726953484
      9   S      22             0.6401217    0.813757326146

     10   S      23             0.1612778    1.000000000000

 C         

     11   S      24          3047.5248800    0.001834737132
     11   S      25           457.3695180    0.014037322813
     11   S      26           103.9486850    0.068842622264
     11   S      27            29.2101553    0.232184443216
     11   S      28             9.2866630    0.467941348435
     11   S      29             3.1639270    0.362311985337

     12   L      30             7.8682723   -0.119332419775    0.068999066591
     12   L      31             1.8812885   -0.160854151696    0.316423960957
     12   L      32             0.5442493    1.143456437840    0.744308290898

     13   L      33             0.1687145    1.000000000000    1.000000000000

     14   D      34             0.8000000    1.000000000000

 H         

     15   S      35            18.7311370    0.033494604338
     15   S      36             2.8253944    0.234726953484
     15   S      37             0.6401217    0.813757326146

     16   S      38             0.1612778    1.000000000000

 H         

     17   S      39            18.7311370    0.033494604338
     17   S      40             2.8253944    0.234726953484
     17   S      41             0.6401217    0.813757326146

     18   S      42             0.1612778    1.000000000000

 H         

     19   S      43            18.7311370    0.033494604338
     19   S      44             2.8253944    0.234726953484
     19   S      45             0.6401217    0.813757326146

     20   S      46             0.1612778    1.000000000000

 C         

     21   S      47          3047.5248800    0.001834737132
     21   S      48           457.3695180    0.014037322813
     21   S      49           103.9486850    0.068842622264
     21   S      50            29.2101553    0.232184443216
     21   S      51             9.2866630    0.467941348435
     21   S      52             3.1639270    0.362311985337

     22   L      53             7.8682723   -0.119332419775    0.068999066591
     22   L      54             1.8812885   -0.160854151696    0.316423960957
     22   L      55             0.5442493    1.143456437840    0.744308290898

     23   L      56             0.1687145    1.000000000000    1.000000000000

     24   D      57             0.8000000    1.000000000000

 H         

     25   S      58            18.7311370    0.033494604338
     25   S      59             2.8253944    0.234726953484
     25   S      60             0.6401217    0.813757326146

     26   S      61             0.1612778    1.000000000000

 H         

     27   S      62            18.7311370    0.033494604338
     27   S      63             2.8253944    0.234726953484
     27   S      64             0.6401217    0.813757326146

     28   S      65             0.1612778    1.000000000000

 C         

     29   S      66          3047.5248800    0.001834737132
     29   S      67           457.3695180    0.014037322813
     29   S      68           103.9486850    0.068842622264
     29   S      69            29.2101553    0.232184443216
     29   S      70             9.2866630    0.467941348435
     29   S      71             3.1639270    0.362311985337

     30   L      72             7.8682723   -0.119332419775    0.068999066591
     30   L      73             1.8812885   -0.160854151696    0.316423960957
     30   L      74             0.5442493    1.143456437840    0.744308290898

     31   L      75             0.1687145    1.000000000000    1.000000000000

     32   D      76             0.8000000    1.000000000000

 H         

     33   S      77            18.7311370    0.033494604338
     33   S      78             2.8253944    0.234726953484
     33   S      79             0.6401217    0.813757326146

     34   S      80             0.1612778    1.000000000000

 H         

     35   S      81            18.7311370    0.033494604338
     35   S      82             2.8253944    0.234726953484
     35   S      83             0.6401217    0.813757326146

     36   S      84             0.1612778    1.000000000000

 C         

     37   S      85          3047.5248800    0.001834737132
     37   S      86           457.3695180    0.014037322813
     37   S      87           103.9486850    0.068842622264
     37   S      88            29.2101553    0.232184443216
     37   S      89             9.2866630    0.467941348435
     37   S      90             3.1639270    0.362311985337

     38   L      91             7.8682723   -0.119332419775    0.068999066591
     38   L      92             1.8812885   -0.160854151696    0.316423960957
     38   L      93             0.5442493    1.143456437840    0.744308290898

     39   L      94             0.1687145    1.000000000000    1.000000000000

     40   D      95             0.8000000    1.000000000000

 H         

     41   S      96            18.7311370    0.033494604338
     41   S      97             2.8253944    0.234726953484
     41   S      98             0.6401217    0.813757326146

     42   S      99             0.1612778    1.000000000000

 H         

     43   S     100            18.7311370    0.033494604338
     43   S     101             2.8253944    0.234726953484
     43   S     102             0.6401217    0.813757326146

     44   S     103             0.1612778    1.000000000000

 TOTAL NUMBER OF BASIS SET SHELLS             =   44
 NUMBER OF CARTESIAN GAUSSIAN BASIS FUNCTIONS =   99
 NUMBER OF ELECTRONS                          =   42
 CHARGE OF MOLECULE                           =    0
 SPIN MULTIPLICITY                            =    1
 NUMBER OF OCCUPIED ORBITALS (ALPHA)          =   21
 NUMBER OF OCCUPIED ORBITALS (BETA )          =   21
 TOTAL NUMBER OF ATOMS                        =   17
 THE NUCLEAR REPULSION ENERGY IS      190.5343568684

     $CONTRL OPTIONS
     ---------------
 SCFTYP=RHF          RUNTYP=OPTIMIZE     EXETYP=RUN     
 MPLEVL=       0     CITYP =NONE         CCTYP =NONE         VBTYP =NONE    
 DFTTYP=NONE         TDDFT =NONE    
 MULT  =       1     ICHARG=       0     NZVAR =      45     COORD =PRINAXIS
 PP    =NONE         RELWFN=NONE         LOCAL =NONE         NUMGRD=       F
 ISPHER=       0     NOSYM =       0     MAXIT =     200     UNITS =ANGS    
 PLTORB=       F     MOLPLT=       F     AIMPAC=       F     FRIEND=        
 NPRINT=       7     IREST =       0     GEOM  =INPUT   
 NORMF =       0     NORMP =       0     ITOL  =      20     ICUT  =       9
 INTTYP=BEST         GRDTYP=BEST         QMTTOL= 1.0E-06

     $SYSTEM OPTIONS
     ---------------
  REPLICATED MEMORY=   110000000 WORDS (ON EVERY NODE).
 DISTRIBUTED MEMDDI=           0 MILLION WORDS IN AGGREGATE,
 MEMDDI DISTRIBUTED OVER   8 PROCESSORS IS           0 WORDS/PROCESSOR.
 TOTAL MEMORY REQUESTED ON EACH PROCESSOR=   110000000 WORDS.
 TIMLIM=       50000.00 MINUTES, OR      34.7 DAYS.
 PARALL= T  BALTYP=  DLB     KDIAG=    0  COREFL= F
 MXSEQ2=     300 MXSEQ3=     150

          ----------------
          PROPERTIES INPUT
          ----------------

     MOMENTS            FIELD           POTENTIAL          DENSITY
 IEMOM =       1   IEFLD =       0   IEPOT =       0   IEDEN =       0
 WHERE =COMASS     WHERE =NUCLEI     WHERE =NUCLEI     WHERE =NUCLEI  
 OUTPUT=BOTH       OUTPUT=BOTH       OUTPUT=BOTH       OUTPUT=BOTH    
 IEMINT=       0   IEFINT=       0                     IEDINT=       0
                                                       MORB  =       0
          EXTRAPOLATION IN EFFECT
          SOSCF IN EFFECT
 ORBITAL PRINTING OPTION: NPREO=     1    99     2     1

     -------------------------------
     INTEGRAL TRANSFORMATION OPTIONS
     -------------------------------
     NWORD  =            0
     CUTOFF = 1.0E-09     MPTRAN =       0
     DIRTRF =       F     AOINTS =DUP     

          ----------------------
          INTEGRAL INPUT OPTIONS
          ----------------------
 NOPK  =       1 NORDER=       0 SCHWRZ=       T


 -----------------------------------------------
  STATISTICS ON AUTOMATIC COORDINATE GENERATION 
 -----------------------------------------------
  NUMBER OF USER SPECIFIED BONDS                             0
  NUMBER OF BONDS                                           16
  NUMBER OF ANGLES                                          30
  NUMBER OF TORSIONS                                        36
  NUMBER OF EXTRA COORD.                                     0
  NUMBER OF EXTRA COORD. FOR CONSTRAINTS                     0
  NUMBER OF CONSTRAINED COORD.                               0

  TOTAL NUMBER OF PRIMITIVES                                82
 -----------------------------------------------

   --- ENCODED Z MATRIX ---
 COORD  TYPE   I   J   K   L   M   N
    1      1    1   4
    2      1    1  15
    3      1    1   2
    4      1    1   3
    5      1    5   8
    6      1    5   7
    7      1    5   9
    8      1    5   6
    9      1    9  12
   10      1    9  11
   11      1    9  10
   12      1   12  15
   13      1   12  14
   14      1   12  13
   15      1   15  16
   16      1   15  17
   17      2    1  15  17
   18      2    1  15  16
   19      2    1  15  12
   20      2    2   1   3
   21      2    2   1   4
   22      2    2   1  15
   23      2    3   1   4
   24      2    3   1  15
   25      2    4   1  15
   26      2    5   9  10
   27      2    5   9  11
   28      2    5   9  12
   29      2    6   5   9
   30      2    6   5   7
   31      2    6   5   8
   32      2    7   5   9
   33      2    7   5   8
   34      2    8   5   9
   35      2    9  12  13
   36      2    9  12  14
   37      2    9  12  15
   38      2   10   9  11
   39      2   10   9  12
   40      2   11   9  12
   41      2   12  15  17
   42      2   12  15  16
   43      2   13  12  14
   44      2   13  12  15
   45      2   14  12  15
   46      2   16  15  17
   47      3    1  15  12  13
   48      3    1  15  12  14
   49      3    1  15  12   9
   50      3    2   1  15  16
   51      3    2   1  15  12
   52      3    2   1  15  17
   53      3    3   1  15  17
   54      3    3   1  15  16
   55      3    3   1  15  12
   56      3    4   1  15  12
   57      3    4   1  15  16
   58      3    4   1  15  17
   59      3    5   9  12  15
   60      3    5   9  12  13
   61      3    5   9  12  14
   62      3    6   5   9  12
   63      3    6   5   9  11
   64      3    6   5   9  10
   65      3    7   5   9  12
   66      3    7   5   9  11
   67      3    7   5   9  10
   68      3    8   5   9  12
   69      3    8   5   9  11
   70      3    8   5   9  10
   71      3    9  12  15  17
   72      3    9  12  15  16
   73      3   10   9  12  15
   74      3   10   9  12  14
   75      3   10   9  12  13
   76      3   11   9  12  15
   77      3   11   9  12  14
   78      3   11   9  12  13
   79      3   13  12  15  17
   80      3   13  12  15  16
   81      3   14  12  15  17
   82      3   14  12  15  16

          INDEP./SYM. INTERNAL COORDINATES
          --------------------------------
 CRD  1=  -0.1677 (  9) -0.1677 ( 12)  0.1277 ( 18) -0.3071 ( 19)  0.1280 ( 26)
          -0.3074 ( 28)  0.1699 ( 35)  0.2124 ( 36) -0.6283 ( 37)  0.1205 ( 39)
           0.1203 ( 42)  0.2119 ( 44)  0.1696 ( 45) -0.1083 ( 48) -0.1081 ( 60)
 CRD  2=  -0.1059 (  9)  0.1061 ( 12) -0.1297 ( 17) -0.1745 ( 18)  0.5185 ( 19)
           0.1079 ( 24) -0.1048 ( 25)  0.1749 ( 26)  0.1293 ( 27) -0.5181 ( 28)
           0.1047 ( 29) -0.1079 ( 32)  0.1315 ( 39)  0.2046 ( 40) -0.2051 ( 41)
          -0.1316 ( 42)  0.1287 ( 49) -0.1288 ( 59)  0.1492 ( 72) -0.1493 ( 73)
 CRD  3=  -0.2018 ( 17)  0.3225 ( 19)  0.1710 ( 22) -0.1044 ( 24) -0.2019 ( 27)
           0.3228 ( 28) -0.1043 ( 32)  0.1709 ( 34) -0.1237 ( 35)  0.2349 ( 36)
          -0.1692 ( 37) -0.1268 ( 39) -0.1266 ( 42)  0.2347 ( 44) -0.1238 ( 45)
          -0.1645 ( 47) -0.1699 ( 48) -0.2615 ( 49) -0.2614 ( 59) -0.1699 ( 60)
          -0.1646 ( 61) -0.1590 ( 71) -0.1089 ( 72) -0.1086 ( 73) -0.1589 ( 76)
 CRD  4=  -0.2703 (  2) -0.2703 (  7)  0.1882 ( 18) -0.2473 ( 19) -0.1773 ( 24)
           0.1885 ( 26) -0.2474 ( 28) -0.1774 ( 32) -0.2232 ( 35)  0.3765 ( 37)
           0.2071 ( 40)  0.2072 ( 41) -0.2229 ( 45) -0.1022 ( 47) -0.1461 ( 49)
          -0.1214 ( 51) -0.1461 ( 59) -0.1022 ( 61) -0.1213 ( 68)
 CRD  5=   0.3498 (  2) -0.3495 (  7) -0.2533 (  9)  0.2526 ( 12) -0.1722 ( 17)
           0.1383 ( 18) -0.1153 ( 21)  0.1588 ( 22)  0.1206 ( 25) -0.1380 ( 26)
           0.1724 ( 27) -0.1206 ( 29)  0.1152 ( 31) -0.1586 ( 34)  0.1631 ( 39)
          -0.1618 ( 40)  0.1616 ( 41) -0.1634 ( 42) -0.1143 ( 48) -0.1817 ( 49)
          -0.1298 ( 51) -0.1270 ( 55)  0.1818 ( 59)  0.1144 ( 60)  0.1270 ( 65)
           0.1298 ( 68) -0.1104 ( 71)  0.1102 ( 76)
 CRD  6=   0.1305 (  2)  0.1301 (  7)  0.5014 (  9)  0.1175 ( 11)  0.5017 ( 12)
           0.1174 ( 15) -0.1011 ( 19) -0.1205 ( 21) -0.1962 ( 24)  0.2653 ( 25)
          -0.1011 ( 28)  0.2648 ( 29) -0.1204 ( 31) -0.1960 ( 32)  0.1449 ( 39)
           0.1450 ( 42)
 CRD  7=  -0.2273 (  2)  0.2311 (  7)  0.1302 (  9) -0.1320 ( 12) -0.1931 ( 17)
           0.3344 ( 22)  0.2083 ( 23) -0.2957 ( 24) -0.2284 ( 25)  0.1938 ( 27)
           0.2307 ( 29) -0.2094 ( 30)  0.2955 ( 32) -0.3329 ( 34) -0.1317 ( 47)
          -0.1152 ( 49)  0.1148 ( 59)  0.1312 ( 61)
 CRD  8=  -0.4077 (  2) -0.4054 (  7)  0.1939 (  9)  0.1937 ( 12) -0.2294 ( 18)
           0.1610 ( 21) -0.1482 ( 22)  0.1107 ( 23) -0.2176 ( 25) -0.2298 ( 26)
          -0.2151 ( 29)  0.1086 ( 30)  0.1611 ( 31) -0.1514 ( 34)  0.1842 ( 39)
           0.1838 ( 42)
 CRD  9=   0.2209 (  2) -0.2217 (  7)  0.1602 ( 17) -0.2046 ( 21)  0.2346 ( 22)
          -0.2774 ( 24)  0.2383 ( 25) -0.1606 ( 27) -0.2391 ( 29)  0.2046 ( 31)
           0.2765 ( 32) -0.2333 ( 34)  0.2192 ( 40) -0.2188 ( 41)  0.1220 ( 51)
           0.1552 ( 55)  0.1757 ( 56) -0.1755 ( 62) -0.1552 ( 65) -0.1220 ( 68)
           0.1253 ( 72) -0.1250 ( 73)
 CRD 10=   0.2231 (  2) -0.2261 (  7)  0.3626 (  9) -0.3627 ( 12) -0.1825 ( 20)
           0.1279 ( 22)  0.2435 ( 24) -0.1731 ( 25) -0.1003 ( 27)  0.1659 ( 29)
          -0.2527 ( 32)  0.1808 ( 33) -0.1139 ( 34)  0.1489 ( 35)  0.1660 ( 36)
           0.1116 ( 39) -0.1099 ( 42) -0.1723 ( 44) -0.1434 ( 45) -0.1229 ( 75)
           0.1446 ( 77) -0.1429 ( 79)  0.1223 ( 82)
 CRD 11=   0.1248 (  3)  0.1265 (  5)  0.4227 ( 22)  0.2104 ( 23) -0.2884 ( 24)
          -0.1971 ( 25) -0.2016 ( 29)  0.2089 ( 30) -0.2811 ( 32)  0.4269 ( 34)
           0.1485 ( 35) -0.1920 ( 36) -0.1864 ( 44)  0.1536 ( 45)  0.1295 ( 71)
           0.1267 ( 76)
 CRD 12=  -0.1028 (  1)  0.1025 (  8) -0.1928 (  9) -0.1028 ( 11)  0.1926 ( 12)
           0.1032 ( 15) -0.1048 ( 18) -0.1353 ( 19) -0.1817 ( 20)  0.2340 ( 22)
           0.1592 ( 24) -0.3218 ( 25)  0.1049 ( 26)  0.1346 ( 28)  0.3214 ( 29)
          -0.1580 ( 32)  0.1811 ( 33) -0.2335 ( 34) -0.1368 ( 35) -0.1108 ( 36)
          -0.2339 ( 39)  0.2344 ( 42)  0.1115 ( 44)  0.1356 ( 45)  0.1080 ( 51)
          -0.1079 ( 68)
 CRD 13=   0.1061 (  2)  0.1156 (  4)  0.1158 (  6)  0.1067 (  7)  0.2126 (  9)
           0.1173 ( 11)  0.2131 ( 12)  0.1035 ( 13)  0.1037 ( 14)  0.1169 ( 15)
          -0.1104 ( 17)  0.1218 ( 18) -0.1254 ( 19) -0.1837 ( 20)  0.3104 ( 24)
          -0.2881 ( 25)  0.1218 ( 26) -0.1101 ( 27) -0.1256 ( 28) -0.2888 ( 29)
           0.3110 ( 32) -0.1845 ( 33)  0.2230 ( 40)  0.2232 ( 41)
 CRD 14=  -0.1171 ( 11)  0.1290 ( 13)  0.1289 ( 14) -0.1168 ( 15) -0.2509 ( 17)
           0.1387 ( 19)  0.1288 ( 20) -0.1605 ( 22)  0.1451 ( 25) -0.2509 ( 27)
           0.1392 ( 28)  0.1463 ( 29)  0.1293 ( 33) -0.1611 ( 34)  0.2925 ( 35)
          -0.1613 ( 36) -0.1668 ( 37) -0.1939 ( 39)  0.1596 ( 40)  0.1598 ( 41)
          -0.1932 ( 42) -0.1609 ( 44)  0.2929 ( 45) -0.1091 ( 51) -0.1029 ( 55)
          -0.1029 ( 65) -0.1093 ( 68)  0.1480 ( 71)  0.1480 ( 76)
 CRD 15=  -0.1234 (  3)  0.1428 (  4)  0.1239 (  5) -0.1431 (  6)  0.3102 ( 10)
          -0.3340 ( 11)  0.3330 ( 15) -0.3088 ( 16) -0.1339 ( 17)  0.1684 ( 18)
          -0.1074 ( 22)  0.1208 ( 24) -0.1683 ( 26)  0.1339 ( 27) -0.1213 ( 32)
           0.1078 ( 34) -0.1519 ( 47) -0.2032 ( 48) -0.1102 ( 49)  0.1222 ( 51)
           0.1262 ( 55)  0.1604 ( 56)  0.1105 ( 59)  0.2041 ( 60)  0.1525 ( 61)
          -0.1611 ( 62) -0.1267 ( 65) -0.1227 ( 68)
 CRD 16=  -0.2543 ( 10) -0.4402 ( 13)  0.4416 ( 14)  0.2563 ( 16)  0.1830 ( 18)
          -0.1831 ( 26)  0.1130 ( 39) -0.1278 ( 40)  0.1284 ( 41) -0.1135 ( 42)
           0.1543 ( 49) -0.1539 ( 59)  0.1717 ( 71)  0.2440 ( 72) -0.2439 ( 73)
          -0.1719 ( 76)
 CRD 17=   0.1092 (  4)  0.1086 (  6) -0.3274 ( 10)  0.2875 ( 11) -0.2004 ( 13)
          -0.1972 ( 14)  0.2895 ( 15) -0.3267 ( 16)  0.1269 ( 35) -0.2262 ( 36)
           0.1154 ( 37) -0.2251 ( 44)  0.1266 ( 45) -0.1380 ( 47) -0.1836 ( 48)
           0.1239 ( 51)  0.1269 ( 55)  0.1513 ( 56) -0.1826 ( 60) -0.1372 ( 61)
           0.1509 ( 62)  0.1266 ( 65)  0.1236 ( 68)
 CRD 18=   0.1524 (  1)  0.1595 (  3)  0.1604 (  4) -0.4798 (  5) -0.4806 (  6)
          -0.1593 (  7) -0.4574 (  8)  0.1812 ( 29) -0.1895 ( 30) -0.1823 ( 31)
           0.1700 ( 32) -0.1783 ( 33)  0.1655 ( 34)
 CRD 19=  -0.4576 (  1) -0.1594 (  2) -0.4801 (  3) -0.4802 (  4) -0.1599 (  5)
          -0.1594 (  6) -0.1521 (  8) -0.1779 ( 20) -0.1821 ( 21)  0.1652 ( 22)
          -0.1894 ( 23)  0.1699 ( 24)  0.1813 ( 25)
 CRD 20=   0.1616 ( 10) -0.1333 ( 11) -0.1320 ( 15)  0.1625 ( 16)  0.1663 ( 17)
          -0.1624 ( 18) -0.1625 ( 26)  0.1666 ( 27)  0.1604 ( 35) -0.1612 ( 36)
           0.1136 ( 39) -0.1229 ( 40) -0.1229 ( 41)  0.1135 ( 42) -0.1613 ( 44)
           0.1601 ( 45) -0.1095 ( 50) -0.1141 ( 52) -0.1102 ( 53) -0.1056 ( 54)
          -0.1090 ( 57) -0.1136 ( 58) -0.1136 ( 63) -0.1092 ( 64) -0.1101 ( 66)
          -0.1057 ( 67) -0.1140 ( 69) -0.1097 ( 70) -0.1236 ( 71) -0.1254 ( 72)
          -0.1255 ( 73) -0.2092 ( 74) -0.2104 ( 75) -0.1242 ( 76) -0.2079 ( 77)
          -0.2091 ( 78) -0.2078 ( 79) -0.2096 ( 80) -0.2087 ( 81) -0.2105 ( 82)
 CRD 21=  -0.2111 (  1)  0.2588 (  5)  0.3036 (  6) -0.6049 (  8)  0.1469 ( 10)
           0.1374 ( 11)  0.1085 ( 20) -0.1371 ( 30) -0.1646 ( 31)  0.3106 ( 33)
          -0.1576 ( 65) -0.1657 ( 66) -0.1418 ( 67)  0.1646 ( 68)  0.1565 ( 69)
           0.1804 ( 70)
 CRD 22=   0.6050 (  1) -0.2706 (  3) -0.2927 (  4)  0.1122 (  6) -0.2112 (  8)
          -0.1388 ( 15) -0.1433 ( 16) -0.3110 ( 20)  0.1591 ( 21)  0.1431 ( 23)
           0.1084 ( 33) -0.1771 ( 50) -0.1623 ( 51) -0.1543 ( 52)  0.1683 ( 53)
           0.1455 ( 54)  0.1603 ( 55)
 CRD 23=   0.5557 (  5) -0.5287 (  6) -0.2965 ( 30)  0.2842 ( 31)  0.2224 ( 62)
           0.2151 ( 63)  0.2213 ( 64)
 CRD 24=   0.5493 (  3) -0.5372 (  4)  0.2889 ( 21) -0.2926 ( 23)  0.2243 ( 56)
           0.2225 ( 57)  0.2178 ( 58)
 CRD 25=  -0.1193 (  3) -0.1192 (  5)  0.3764 ( 10)  0.2428 ( 11) -0.3989 ( 13)
          -0.3990 ( 14)  0.2452 ( 15)  0.3791 ( 16)  0.1222 ( 38) -0.1572 ( 43)
           0.1234 ( 46) -0.1300 ( 74)  0.1071 ( 78) -0.1308 ( 80)  0.1072 ( 81)
 CRD 26=   0.3877 ( 10)  0.4486 ( 11) -0.4455 ( 15) -0.3849 ( 16)  0.1646 ( 38)
          -0.1634 ( 46)  0.1076 ( 52) -0.1090 ( 69)  0.1078 ( 72) -0.1082 ( 73)
 CRD 27=  -0.1960 ( 10) -0.3584 ( 11) -0.4319 ( 13) -0.4303 ( 14) -0.3595 ( 15)
          -0.1977 ( 16) -0.1157 ( 38) -0.1818 ( 43) -0.1161 ( 46)  0.1042 ( 75)
          -0.1471 ( 77) -0.1479 ( 79)  0.1037 ( 82)
 CRD 28=  -0.3251 ( 13)  0.3275 ( 14) -0.1116 ( 18)  0.1115 ( 26) -0.1172 ( 39)
           0.1246 ( 40) -0.1250 ( 41)  0.1172 ( 42) -0.1138 ( 47) -0.1831 ( 50)
          -0.1804 ( 52) -0.1851 ( 53) -0.1878 ( 54) -0.1028 ( 55) -0.1504 ( 57)
          -0.1478 ( 58)  0.1142 ( 61)  0.1474 ( 63)  0.1505 ( 64)  0.1030 ( 65)
           0.1849 ( 66)  0.1880 ( 67)  0.1801 ( 69)  0.1832 ( 70)  0.1557 ( 74)
           0.1401 ( 75)  0.1436 ( 77)  0.1280 ( 78) -0.1427 ( 79) -0.1555 ( 80)
          -0.1280 ( 81) -0.1407 ( 82)
 CRD 29=  -0.2279 ( 10)  0.2417 ( 11)  0.2431 ( 15) -0.2267 ( 16)  0.1052 ( 48)
          -0.1916 ( 50) -0.1468 ( 51) -0.1929 ( 52) -0.1956 ( 53) -0.1943 ( 54)
          -0.1496 ( 55) -0.1644 ( 56) -0.2092 ( 57) -0.2105 ( 58)  0.1049 ( 60)
          -0.1643 ( 62) -0.2104 ( 63) -0.2091 ( 64) -0.1495 ( 65) -0.1956 ( 66)
          -0.1943 ( 67) -0.1469 ( 68) -0.1930 ( 69) -0.1917 ( 70)  0.1116 ( 75)
           0.1258 ( 78)  0.1261 ( 81)  0.1117 ( 82)
 CRD 30=  -0.2047 ( 10)  0.2115 ( 11) -0.1515 ( 13)  0.1520 ( 14) -0.2121 ( 15)
           0.2033 ( 16) -0.1274 ( 47) -0.1548 ( 48) -0.1120 ( 49)  0.1347 ( 50)
           0.1033 ( 51)  0.1011 ( 52)  0.1016 ( 53)  0.1352 ( 54)  0.1038 ( 55)
           0.1441 ( 56)  0.1755 ( 57)  0.1419 ( 58)  0.1119 ( 59)  0.1548 ( 60)
           0.1273 ( 61) -0.1441 ( 62) -0.1419 ( 63) -0.1755 ( 64) -0.1038 ( 65)
          -0.1016 ( 66) -0.1352 ( 67) -0.1035 ( 68) -0.1013 ( 69) -0.1349 ( 70)
          -0.1108 ( 71) -0.1699 ( 72)  0.1699 ( 73)  0.1853 ( 74)  0.2128 ( 75)
           0.1108 ( 76)  0.1262 ( 77)  0.1537 ( 78) -0.1262 ( 79) -0.1853 ( 80)
          -0.1537 ( 81) -0.2128 ( 82)
 CRD 31=   0.2166 (  1)  0.1566 (  3) -0.1552 (  5) -0.2147 (  8)  0.1083 ( 10)
          -0.1649 ( 13)  0.1643 ( 14) -0.1086 ( 16) -0.1288 ( 17) -0.1667 ( 18)
          -0.1047 ( 20) -0.2107 ( 21)  0.1460 ( 22) -0.1520 ( 23)  0.1262 ( 24)
           0.1664 ( 25)  0.1658 ( 26)  0.1274 ( 27) -0.1646 ( 29)  0.1499 ( 30)
           0.2091 ( 31) -0.1246 ( 32)  0.1035 ( 33) -0.1445 ( 34)  0.1224 ( 36)
          -0.1243 ( 39) -0.1405 ( 40)  0.1419 ( 41)  0.1251 ( 42) -0.1222 ( 44)
           0.1201 ( 48)  0.1511 ( 52) -0.1204 ( 60) -0.1506 ( 69)  0.1029 ( 74)
          -0.1744 ( 78) -0.1033 ( 80)  0.1749 ( 81)
 CRD 32=  -0.2287 (  1)  0.1485 (  2) -0.1412 (  3) -0.1704 (  4) -0.1424 (  5)
          -0.1713 (  6)  0.1489 (  7) -0.2306 (  8)  0.1290 (  9)  0.1285 ( 12)
           0.1393 ( 17)  0.1273 ( 18)  0.1472 ( 20)  0.1953 ( 21) -0.1633 ( 22)
           0.2166 ( 23) -0.1712 ( 24) -0.1909 ( 25)  0.1291 ( 26)  0.1402 ( 27)
          -0.1921 ( 29)  0.2176 ( 30)  0.1973 ( 31) -0.1721 ( 32)  0.1482 ( 33)
          -0.1645 ( 34) -0.1240 ( 39) -0.1260 ( 40) -0.1250 ( 41) -0.1225 ( 42)
           0.1049 ( 72)  0.1060 ( 73)  0.1304 ( 75) -0.1333 ( 77) -0.1328 ( 79)
           0.1303 ( 82)
 CRD 33=  -0.2413 (  2)  0.2035 (  4) -0.2041 (  6)  0.2409 (  7)  0.1683 (  9)
           0.1784 ( 11) -0.1686 ( 12) -0.1774 ( 15) -0.1665 ( 20)  0.1075 ( 22)
          -0.1490 ( 23)  0.1326 ( 24)  0.1067 ( 25) -0.1066 ( 29)  0.1491 ( 30)
          -0.1326 ( 32)  0.1667 ( 33) -0.1075 ( 34) -0.1547 ( 35) -0.1842 ( 36)
           0.1842 ( 44)  0.1550 ( 45) -0.1228 ( 48) -0.1861 ( 52) -0.1388 ( 53)
          -0.1115 ( 58)  0.1230 ( 60)  0.1114 ( 63)  0.1389 ( 66)  0.1864 ( 69)
          -0.1034 ( 74) -0.1528 ( 77)  0.1524 ( 79)  0.1033 ( 80)
 CRD 34=   0.2999 (  2) -0.2188 (  3) -0.2146 (  5)  0.3015 (  7) -0.1292 (  9)
           0.1377 ( 10) -0.1292 ( 12) -0.1008 ( 14)  0.1441 ( 16) -0.1268 ( 17)
           0.1900 ( 20) -0.1258 ( 27)  0.1888 ( 33)  0.1438 ( 39)  0.1035 ( 40)
           0.1045 ( 41)  0.1476 ( 42)  0.1778 ( 43) -0.1118 ( 50) -0.2376 ( 54)
          -0.1007 ( 57) -0.2313 ( 67) -0.1076 ( 70)  0.1012 ( 74)  0.1525 ( 77)
           0.1494 ( 79)  0.1004 ( 80)
 CRD 35=   0.1017 (  1) -0.1453 (  3)  0.1128 (  4)  0.1505 (  5) -0.1106 (  6)
          -0.1032 (  8) -0.2359 ( 10)  0.2260 ( 13) -0.2239 ( 14)  0.2335 ( 16)
          -0.1568 ( 23)  0.1567 ( 30)  0.1877 ( 35)  0.1751 ( 38) -0.1481 ( 39)
           0.1444 ( 42) -0.1865 ( 45) -0.1733 ( 46) -0.1721 ( 47) -0.1608 ( 50)
          -0.2323 ( 54)  0.1264 ( 56)  0.1321 ( 58)  0.1702 ( 61) -0.1269 ( 62)
          -0.1344 ( 63)  0.2380 ( 67)  0.1632 ( 70)  0.1466 ( 72) -0.1462 ( 73)
           0.1547 ( 77) -0.1582 ( 79)
 CRD 36=   0.2949 (  2) -0.1874 (  3)  0.1901 (  5) -0.2942 (  7)  0.3188 (  9)
          -0.3223 ( 12) -0.1281 ( 17)  0.1637 ( 20)  0.1285 ( 27) -0.1614 ( 33)
          -0.1267 ( 35) -0.1197 ( 39)  0.1191 ( 42)  0.1275 ( 45) -0.1798 ( 54)
           0.1805 ( 67) -0.2059 ( 77) -0.1052 ( 78)  0.2020 ( 79)  0.1036 ( 81)
 CRD 37=   0.1190 (  1) -0.2499 (  4) -0.2515 (  6)  0.1205 (  8) -0.1552 (  9)
          -0.1249 ( 10)  0.2191 ( 11) -0.1461 ( 12)  0.2207 ( 15) -0.1264 ( 16)
           0.1193 ( 20) -0.1636 ( 21) -0.1624 ( 31)  0.1230 ( 33)  0.1405 ( 40)
           0.1389 ( 41) -0.1054 ( 43)  0.1486 ( 50)  0.2765 ( 52)  0.1348 ( 53)
          -0.1508 ( 56) -0.1503 ( 62) -0.1009 ( 64)  0.1326 ( 66)  0.2776 ( 69)
           0.1479 ( 70) -0.1091 ( 71) -0.1202 ( 74) -0.1074 ( 76) -0.1385 ( 77)
          -0.1439 ( 79) -0.1227 ( 80)
 CRD 38=  -0.2173 (  1)  0.1122 (  2)  0.2183 (  4) -0.2177 (  6) -0.1112 (  7)
           0.2153 (  8) -0.1393 (  9)  0.1125 ( 11)  0.1399 ( 12) -0.1130 ( 15)
          -0.1343 ( 20)  0.1984 ( 21) -0.1006 ( 24) -0.1978 ( 31)  0.1004 ( 32)
           0.1330 ( 33)  0.1366 ( 36) -0.1034 ( 38) -0.1366 ( 44)  0.1043 ( 46)
           0.1131 ( 48) -0.1652 ( 50) -0.1295 ( 51) -0.2172 ( 52)  0.1142 ( 55)
           0.1520 ( 56)  0.1163 ( 57) -0.1136 ( 60) -0.1526 ( 62) -0.1166 ( 64)
          -0.1134 ( 65)  0.1284 ( 68)  0.2160 ( 69)  0.1643 ( 70) -0.2012 ( 78)
           0.2013 ( 81)
 CRD 39=  -0.2181 (  1)  0.2297 (  2)  0.1620 (  3)  0.1621 (  5)  0.2303 (  7)
          -0.2197 (  8) -0.1198 ( 10) -0.1197 ( 16) -0.1286 ( 17) -0.1057 ( 18)
          -0.1074 ( 20) -0.1043 ( 22)  0.1829 ( 23) -0.1064 ( 26) -0.1288 ( 27)
           0.1830 ( 30) -0.1082 ( 33) -0.1045 ( 34)  0.1466 ( 38)  0.1073 ( 43)
           0.1458 ( 46) -0.1029 ( 51)  0.1424 ( 53)  0.1883 ( 54)  0.1296 ( 55)
          -0.1054 ( 56) -0.1046 ( 62)  0.1307 ( 65)  0.1429 ( 66)  0.1894 ( 67)
          -0.1036 ( 68) -0.1661 ( 72) -0.1669 ( 73) -0.1945 ( 75)  0.1387 ( 77)
           0.1382 ( 79) -0.1947 ( 82)
 CRD 40=   0.1270 (  2) -0.1265 (  3)  0.1528 (  4) -0.1268 (  5)  0.1527 (  6)
           0.1264 (  7) -0.1837 (  9) -0.1841 ( 12)  0.1623 ( 13)  0.1615 ( 14)
          -0.1501 ( 18)  0.1418 ( 21) -0.1205 ( 24) -0.1499 ( 26)  0.1416 ( 31)
          -0.1205 ( 32)  0.1157 ( 37) -0.2555 ( 43)  0.1993 ( 48)  0.1353 ( 56)
           0.1543 ( 57)  0.1909 ( 58)  0.1994 ( 60)  0.1355 ( 62)  0.1908 ( 63)
           0.1549 ( 64) -0.1050 ( 72) -0.1056 ( 73) -0.2252 ( 74) -0.1037 ( 77)
           0.1700 ( 78) -0.1039 ( 79) -0.2257 ( 80)  0.1701 ( 81)
 CRD 41=   0.1628 (  1) -0.1018 (  2) -0.1908 (  3)  0.1899 (  5)  0.1024 (  7)
          -0.1626 (  8) -0.1735 (  9)  0.1736 ( 12) -0.1313 ( 13)  0.1316 ( 14)
           0.1562 ( 17)  0.1053 ( 20)  0.1401 ( 22) -0.1642 ( 23) -0.1558 ( 27)
           0.1635 ( 30) -0.1049 ( 33) -0.1396 ( 34)  0.1110 ( 40) -0.1111 ( 41)
           0.1060 ( 47)  0.1269 ( 48)  0.1682 ( 50) -0.2291 ( 53) -0.1747 ( 55)
           0.1072 ( 56)  0.2247 ( 57) -0.1263 ( 60) -0.1060 ( 61) -0.1066 ( 62)
          -0.2234 ( 64)  0.1741 ( 65)  0.2284 ( 66) -0.1678 ( 70) -0.1157 ( 71)
           0.1159 ( 76)
 CRD 42=   0.1413 (  1)  0.1422 (  8)  0.1343 (  9) -0.1472 ( 10) -0.1252 ( 11)
           0.1329 ( 12) -0.1243 ( 15) -0.1474 ( 16) -0.1598 ( 19)  0.1230 ( 20)
          -0.1447 ( 25) -0.1602 ( 28) -0.1454 ( 29)  0.1235 ( 33)  0.2115 ( 38)
           0.2109 ( 46)  0.2557 ( 50)  0.1045 ( 51) -0.2620 ( 53) -0.1328 ( 55)
           0.1605 ( 57) -0.1198 ( 58) -0.1210 ( 63)  0.1605 ( 64) -0.1329 ( 65)
          -0.2632 ( 66)  0.1060 ( 68)  0.2571 ( 70) -0.1374 ( 72) -0.1381 ( 73)
          -0.1211 ( 74) -0.1121 ( 75) -0.1212 ( 80) -0.1127 ( 82)
 CRD 43=   0.1247 (  4) -0.1253 (  6)  0.1788 (  9) -0.1996 ( 11) -0.1802 ( 12)
           0.1991 ( 15)  0.1346 ( 19) -0.1067 ( 24) -0.1343 ( 28)  0.1072 ( 32)
          -0.1423 ( 35)  0.1549 ( 38)  0.1426 ( 45) -0.1559 ( 46)  0.1798 ( 47)
          -0.1464 ( 50) -0.1875 ( 51)  0.1721 ( 53)  0.2305 ( 58) -0.1816 ( 61)
          -0.2310 ( 63) -0.1710 ( 66)  0.1886 ( 68)  0.1454 ( 70) -0.2074 ( 71)
          -0.1246 ( 74)  0.2077 ( 76)  0.1660 ( 78)  0.1244 ( 80) -0.1651 ( 81)
 CRD 44=  -0.1133 (  9)  0.1253 ( 10) -0.1455 ( 11) -0.1120 ( 12)  0.1226 ( 13)
           0.1228 ( 14) -0.1471 ( 15)  0.1254 ( 16) -0.1148 ( 17) -0.1143 ( 27)
           0.2068 ( 37)  0.1378 ( 39)  0.1382 ( 42) -0.1842 ( 43) -0.2523 ( 47)
          -0.1282 ( 49)  0.2005 ( 51)  0.1896 ( 55) -0.1606 ( 57) -0.1647 ( 58)
          -0.1272 ( 59) -0.2510 ( 61) -0.1629 ( 63) -0.1604 ( 64)  0.1888 ( 65)
           0.1990 ( 68)  0.1116 ( 71)  0.1651 ( 75)  0.1105 ( 76)  0.2184 ( 78)
           0.2203 ( 81)  0.1656 ( 82)
 CRD 45=   0.1651 ( 10)  0.1716 ( 13) -0.1715 ( 14) -0.1644 ( 16) -0.1033 ( 18)
          -0.1148 ( 19)  0.1037 ( 26)  0.1150 ( 28) -0.1597 ( 36) -0.1369 ( 40)
           0.1368 ( 41)  0.1596 ( 44)  0.2896 ( 49) -0.1322 ( 51) -0.1609 ( 55)
           0.1532 ( 57) -0.2899 ( 59) -0.1542 ( 64)  0.1616 ( 65)  0.1325 ( 68)
           0.2100 ( 71)  0.2042 ( 74)  0.2358 ( 75) -0.2100 ( 76) -0.2034 ( 80)
          -0.2350 ( 82)

 THE DETERMINANT OF THE G MATRIX IS 10**(   -12)


                     --------------------
                     INTERNAL COORDINATES
                     --------------------

                 - - ATOMS - -         COORDINATE      COORDINATE
 NO.   TYPE    I  J  K  L  M  N        (BOHR,RAD)       (ANG,DEG)
 ----------------------------------------------------------------
   1 STRETCH   1  4                     2.0512373       1.0854681
   2 STRETCH   1 15                     2.8909849       1.5298435
   3 STRETCH   1  2                     2.0542312       1.0870524
   4 STRETCH   1  3                     2.0502700       1.0849562
   5 STRETCH   5  8                     2.0540487       1.0869558
   6 STRETCH   5  7                     2.0505896       1.0851253
   7 STRETCH   5  9                     2.8907021       1.5296938
   8 STRETCH   5  6                     2.0514941       1.0856040
   9 STRETCH   9 12                     2.8998650       1.5345426
  10 STRETCH   9 11                     2.0537357       1.0867902
  11 STRETCH   9 10                     2.0533010       1.0865602
  12 STRETCH  12 15                     2.8994863       1.5343422
  13 STRETCH  12 14                     2.0554330       1.0876884
  14 STRETCH  12 13                     2.0563840       1.0881916
  15 STRETCH  15 16                     2.0556267       1.0877909
  16 STRETCH  15 17                     2.0518265       1.0857799
  17 BEND      1 15 17                  1.9098575     109.4267718
  18 BEND      1 15 16                  1.8981976     108.7587115
  19 BEND      1 15 12                  1.9967140     114.4032854
  20 BEND      2  1  3                  1.8801078     107.7222400
  21 BEND      2  1  4                  1.8790026     107.6589188
  22 BEND      2  1 15                  1.9381761     111.0493087
  23 BEND      3  1  4                  1.8756843     107.4687924
  24 BEND      3  1 15                  1.9538683     111.9484096
  25 BEND      4  1 15                  1.9338704     110.8026095
  26 BEND      5  9 10                  1.8983080     108.7650383
  27 BEND      5  9 11                  1.9088913     109.3714164
  28 BEND      5  9 12                  1.9965845     114.3958678
  29 BEND      6  5  9                  1.9339991     110.8099873
  30 BEND      6  5  7                  1.8739170     107.3675375
  31 BEND      6  5  8                  1.8793922     107.6812394
  32 BEND      7  5  9                  1.9548272     112.0033495
  33 BEND      7  5  8                  1.8802519     107.7304989
  34 BEND      8  5  9                  1.9382492     111.0535002
  35 BEND      9 12 13                  1.8932885     108.4774405
  36 BEND      9 12 14                  1.8938999     108.5124699
  37 BEND      9 12 15                  2.0269925     116.1381135
  38 BEND     10  9 11                  1.8476360     105.8617472
  39 BEND     10  9 12                  1.8855153     108.0320675
  40 BEND     11  9 12                  1.9207507     110.0509058
  41 BEND     12 15 17                  1.9211150     110.0717814
  42 BEND     12 15 16                  1.8842219     107.9579617
  43 BEND     13 12 14                  1.8527993     106.1575801
  44 BEND     13 12 15                  1.8948841     108.5688624
  45 BEND     14 12 15                  1.8943948     108.5408285
  46 BEND     16 15 17                  1.8475188     105.8550306
  47 TORSION   1 15 12 13              -1.0567337     -60.5463797
  48 TORSION   1 15 12 14              -3.0635121    -175.5263159
  49 TORSION   1 15 12  9               1.0812605      61.9516639
  50 TORSION   2  1 15 16              -1.1410794     -65.3790331
  51 TORSION   2  1 15 12               0.9668135      55.3943306
  52 TORSION   2  1 15 17               3.1315433     179.4242136
  53 TORSION   3  1 15 17               1.0293451      58.9771298
  54 TORSION   3  1 15 16               3.0399077     174.1738831
  55 TORSION   3  1 15 12              -1.1353847     -65.0527532
  56 TORSION   4  1 15 12               3.0541997     174.9927535
  57 TORSION   4  1 15 16               0.9463069      54.2193898
  58 TORSION   4  1 15 17              -1.0642558     -60.9773635
  59 TORSION   5  9 12 15               1.0805319      61.9099191
  60 TORSION   5  9 12 13              -3.0638207    -175.5439980
  61 TORSION   5  9 12 14              -1.0581408     -60.6270014
  62 TORSION   6  5  9 12               3.0561133     175.1023939
  63 TORSION   6  5  9 11              -1.0636753     -60.9441041
  64 TORSION   6  5  9 10               0.9465648      54.2341698
  65 TORSION   7  5  9 12              -1.1349842     -65.0298023
  66 TORSION   7  5  9 11               1.0284126      58.9236997
  67 TORSION   7  5  9 10               3.0386527     174.1019736
  68 TORSION   8  5  9 12               0.9681048      55.4683200
  69 TORSION   8  5  9 11               3.1315015     179.4218220
  70 TORSION   8  5  9 10              -1.1414437     -65.3999042
  71 TORSION   9 12 15 17              -1.0774449     -61.7330442
  72 TORSION   9 12 15 16              -3.0863116    -176.8326271
  73 TORSION  10  9 12 15              -3.0860427    -176.8172203
  74 TORSION  10  9 12 14               1.0584699      60.6458592
  75 TORSION  10  9 12 13              -0.9472100     -54.2711373
  76 TORSION  11  9 12 15              -1.0765110     -61.6795390
  77 TORSION  11  9 12 14               3.0680016     175.7835405
  78 TORSION  11  9 12 13               1.0623216      60.8665440
  79 TORSION  13 12 15 17               3.0677462     175.7689122
  80 TORSION  13 12 15 16               1.0588796      60.6693293
  81 TORSION  14 12 15 17               1.0609678      60.7889760
  82 TORSION  14 12 15 16              -0.9478989     -54.3106069

     ------------------------------------------
     THE POINT GROUP IS C1 , NAXIS= 0, ORDER= 1
     ------------------------------------------

     DIMENSIONS OF THE SYMMETRY SUBSPACES ARE
 A   =   99

 ..... DONE SETTING UP THE RUN .....
 CPU     0: STEP CPU TIME=     0.04 TOTAL CPU TIME=        0.0 (    0.0 MIN)
 TOTAL WALL CLOCK TIME=        0.0 SECONDS, CPU UTILIZATION IS 100.00%


          -----------------------------
          STATIONARY POINT LOCATION RUN
          -----------------------------

 OBTAINING INITIAL HESSIAN, HESS=GUESS   
 DIAGONAL GUESS HESSIAN IN INTERNAL COORDS IS
     1  0.3494     2  0.3673     3  0.3484     4  0.3498     5  0.3484
     6  0.3497     7  0.3674     8  0.3493     9  0.3639    10  0.3485
    11  0.3487    12  0.3641    13  0.3479    14  0.3476    15  0.3479
    16  0.3492    17  0.2243    18  0.2242    19  0.2482    20  0.2038
    21  0.2038    22  0.2243    23  0.2039    24  0.2244    25  0.2244
    26  0.2243    27  0.2243    28  0.2482    29  0.2244    30  0.2039
    31  0.2038    32  0.2244    33  0.2038    34  0.2243    35  0.2239
    36  0.2239    37  0.2479    38  0.2037    39  0.2240    40  0.2240
    41  0.2241    42  0.2240    43  0.2036    44  0.2239    45  0.2240
    46  0.2037    47  0.2500    48  0.2500    49  0.2500    50  0.2500
    51  0.2500    52  0.2500    53  0.2500    54  0.2500    55  0.2500
    56  0.2500    57  0.2500    58  0.2500    59  0.2500    60  0.2500
    61  0.2500    62  0.2500    63  0.2500    64  0.2500    65  0.2500
    66  0.2500    67  0.2500    68  0.2500    69  0.2500    70  0.2500
    71  0.2500    72  0.2500    73  0.2500    74  0.2500    75  0.2500
    76  0.2500    77  0.2500    78  0.2500    79  0.2500    80  0.2500
    81  0.2500    82  0.2500
 TRANSFORMING HESSIAN TO SYMMETRY COORDINATES

          PARAMETERS CONTROLLING GEOMETRY SEARCH ARE
          METHOD =QA                  UPHESS =BFGS    
          NNEG   =         0          NFRZ   =         0
          NSTEP  =       200          IFOLOW =         1
          HESS   =GUESS               RESTAR =         F
          IHREP  =         0          HSSEND =         F
          NPRT   =         0          NPUN   =         0
          OPTTOL = 1.000E-06          RMIN   = 1.500E-03
          RMAX   = 1.000E-01          RLIM   = 7.000E-02
          DXMAX  = 3.000E-01          PURIFY =         F
          MOVIE  =         F          TRUPD  =         T
          TRMAX  = 5.000E-01          TRMIN  = 5.000E-02
          ITBMAT =         5          STPT   =         F
          STSTEP = 1.000E-02          PROJCT=          T

 BEGINNING GEOMETRY SEARCH POINT NSERCH=   0 ...

 COORDINATES OF ALL ATOMS ARE (ANGS)
   ATOM   CHARGE       X              Y              Z
 ------------------------------------------------------------
 C           6.0  -1.9005706624  -0.6788927649   0.3536144018
 H           1.0  -2.2863289257  -0.0982229967   1.1876984399
 H           1.0  -1.2715738402  -1.4637234318   0.7604728808
 H           1.0  -2.7447712472  -1.1572551977  -0.1329405853
 C           6.0   1.9003754807  -0.6788692175  -0.3535640880
 H           1.0   2.7438487749  -1.1585821554   0.1332257016
 H           1.0   1.2718292175  -1.4641534264  -0.7606946646
 H           1.0   2.2868002682  -0.0984543679  -1.1873911000
 C           6.0   1.1396993815   0.2118532326   0.6302795931
 H           1.0   1.8390225632   0.9095996161   1.0827285647
 H           1.0   0.7573833359  -0.3963373961   1.4457865523
 C           6.0  -0.0000838270   1.0232486275  -0.0000796306
 H           1.0  -0.4204658945   1.6767990969   0.7617022944
 H           1.0   0.4209186519   1.6767840444  -0.7608124165
 C           6.0  -1.1394032368   0.2115208665  -0.6303615710
 H           1.0  -1.8391268155   0.9108778499  -1.0826620500
 H           1.0  -0.7577401225  -0.3953813273  -1.4457884496


                     --------------------
                     INTERNAL COORDINATES
                     --------------------

                 - - ATOMS - -         COORDINATE      COORDINATE
 NO.   TYPE    I  J  K  L  M  N        (BOHR,RAD)       (ANG,DEG)
 ----------------------------------------------------------------
   1 STRETCH   1  4                     2.0512373       1.0854681
   2 STRETCH   1 15                     2.8909849       1.5298435
   3 STRETCH   1  2                     2.0542312       1.0870524
   4 STRETCH   1  3                     2.0502700       1.0849562
   5 STRETCH   5  8                     2.0540487       1.0869558
   6 STRETCH   5  7                     2.0505896       1.0851253
   7 STRETCH   5  9                     2.8907021       1.5296938
   8 STRETCH   5  6                     2.0514941       1.0856040
   9 STRETCH   9 12                     2.8998650       1.5345426
  10 STRETCH   9 11                     2.0537357       1.0867902
  11 STRETCH   9 10                     2.0533010       1.0865602
  12 STRETCH  12 15                     2.8994863       1.5343422
  13 STRETCH  12 14                     2.0554330       1.0876884
  14 STRETCH  12 13                     2.0563840       1.0881916
  15 STRETCH  15 16                     2.0556267       1.0877909
  16 STRETCH  15 17                     2.0518265       1.0857799
  17 BEND      1 15 17                  1.9098575     109.4267718
  18 BEND      1 15 16                  1.8981976     108.7587115
  19 BEND      1 15 12                  1.9967140     114.4032854
  20 BEND      2  1  3                  1.8801078     107.7222400
  21 BEND      2  1  4                  1.8790026     107.6589188
  22 BEND      2  1 15                  1.9381761     111.0493087
  23 BEND      3  1  4                  1.8756843     107.4687924
  24 BEND      3  1 15                  1.9538683     111.9484096
  25 BEND      4  1 15                  1.9338704     110.8026095
  26 BEND      5  9 10                  1.8983080     108.7650383
  27 BEND      5  9 11                  1.9088913     109.3714164
  28 BEND      5  9 12                  1.9965845     114.3958678
  29 BEND      6  5  9                  1.9339991     110.8099873
  30 BEND      6  5  7                  1.8739170     107.3675375
  31 BEND      6  5  8                  1.8793922     107.6812394
  32 BEND      7  5  9                  1.9548272     112.0033495
  33 BEND      7  5  8                  1.8802519     107.7304989
  34 BEND      8  5  9                  1.9382492     111.0535002
  35 BEND      9 12 13                  1.8932885     108.4774405
  36 BEND      9 12 14                  1.8938999     108.5124699
  37 BEND      9 12 15                  2.0269925     116.1381135
  38 BEND     10  9 11                  1.8476360     105.8617472
  39 BEND     10  9 12                  1.8855153     108.0320675
  40 BEND     11  9 12                  1.9207507     110.0509058
  41 BEND     12 15 17                  1.9211150     110.0717814
  42 BEND     12 15 16                  1.8842219     107.9579617
  43 BEND     13 12 14                  1.8527993     106.1575801
  44 BEND     13 12 15                  1.8948841     108.5688624
  45 BEND     14 12 15                  1.8943948     108.5408285
  46 BEND     16 15 17                  1.8475188     105.8550306
  47 TORSION   1 15 12 13              -1.0567337     -60.5463797
  48 TORSION   1 15 12 14              -3.0635121    -175.5263159
  49 TORSION   1 15 12  9               1.0812605      61.9516639
  50 TORSION   2  1 15 16              -1.1410794     -65.3790331
  51 TORSION   2  1 15 12               0.9668135      55.3943306
  52 TORSION   2  1 15 17               3.1315433     179.4242136
  53 TORSION   3  1 15 17               1.0293451      58.9771298
  54 TORSION   3  1 15 16               3.0399077     174.1738831
  55 TORSION   3  1 15 12              -1.1353847     -65.0527532
  56 TORSION   4  1 15 12               3.0541997     174.9927535
  57 TORSION   4  1 15 16               0.9463069      54.2193898
  58 TORSION   4  1 15 17              -1.0642558     -60.9773635
  59 TORSION   5  9 12 15               1.0805319      61.9099191
  60 TORSION   5  9 12 13              -3.0638207    -175.5439980
  61 TORSION   5  9 12 14              -1.0581408     -60.6270014
  62 TORSION   6  5  9 12               3.0561133     175.1023939
  63 TORSION   6  5  9 11              -1.0636753     -60.9441041
  64 TORSION   6  5  9 10               0.9465648      54.2341698
  65 TORSION   7  5  9 12              -1.1349842     -65.0298023
  66 TORSION   7  5  9 11               1.0284126      58.9236997
  67 TORSION   7  5  9 10               3.0386527     174.1019736
  68 TORSION   8  5  9 12               0.9681048      55.4683200
  69 TORSION   8  5  9 11               3.1315015     179.4218220
  70 TORSION   8  5  9 10              -1.1414437     -65.3999042
  71 TORSION   9 12 15 17              -1.0774449     -61.7330442
  72 TORSION   9 12 15 16              -3.0863116    -176.8326271
  73 TORSION  10  9 12 15              -3.0860427    -176.8172203
  74 TORSION  10  9 12 14               1.0584699      60.6458592
  75 TORSION  10  9 12 13              -0.9472100     -54.2711373
  76 TORSION  11  9 12 15              -1.0765110     -61.6795390
  77 TORSION  11  9 12 14               3.0680016     175.7835405
  78 TORSION  11  9 12 13               1.0623216      60.8665440
  79 TORSION  13 12 15 17               3.0677462     175.7689122
  80 TORSION  13 12 15 16               1.0588796      60.6693293
  81 TORSION  14 12 15 17               1.0609678      60.7889760
  82 TORSION  14 12 15 16              -0.9478989     -54.3106069

          ********************
          1 ELECTRON INTEGRALS
          ********************
 ...... END OF ONE-ELECTRON INTEGRALS ......
 CPU     0: STEP CPU TIME=     0.00 TOTAL CPU TIME=        0.0 (    0.0 MIN)
 TOTAL WALL CLOCK TIME=        0.0 SECONDS, CPU UTILIZATION IS  80.00%

          -------------
          GUESS OPTIONS
          -------------
          GUESS =HUCKEL            NORB  =       0          NORDER=       0
          MIX   =       F          PRTMO =       F          PUNMO =       F
          TOLZ  = 1.0E-08          TOLE  = 1.0E-05
          SYMDEN=       F          PURIFY=       F

 INITIAL GUESS ORBITALS GENERATED BY HUCKEL   ROUTINE.
 HUCKEL GUESS REQUIRES     88679 WORDS.

 SYMMETRIES FOR INITIAL GUESS ORBITALS FOLLOW.   BOTH SET(S).
    21 ORBITALS ARE OCCUPIED (    5 CORE ORBITALS).
     6=A        7=A        8=A        9=A       10=A       11=A       12=A   
    13=A       14=A       15=A       16=A       17=A       18=A       19=A   
    20=A       21=A       22=A       23=A       24=A       25=A       26=A   
    27=A       28=A       29=A       30=A       31=A   
 ...... END OF INITIAL ORBITAL SELECTION ......
 CPU     0: STEP CPU TIME=     0.02 TOTAL CPU TIME=        0.1 (    0.0 MIN)
 TOTAL WALL CLOCK TIME=        0.1 SECONDS, CPU UTILIZATION IS 100.00%

                    ----------------------
                    AO INTEGRAL TECHNOLOGY
                    ----------------------
     S,P,L SHELL ROTATED AXIS INTEGRALS, REPROGRAMMED BY
        KAZUYA ISHIMURA (IMS) AND JOSE SIERRA (SYNSTAR).
     S,P,D,L SHELL ROTATED AXIS INTEGRALS PROGRAMMED BY
        KAZUYA ISHIMURA (INSTITUTE FOR MOLECULAR SCIENCE).
     S,P,D,F,G SHELL TO TOTAL QUARTET ANGULAR MOMENTUM SUM 5,
        ERIC PROGRAM BY GRAHAM FLETCHER (ELORET AND NASA ADVANCED
        SUPERCOMPUTING DIVISION, AMES RESEARCH CENTER).
     S,P,D,F,G,L SHELL GENERAL RYS QUADRATURE PROGRAMMED BY
        MICHEL DUPUIS (PACIFIC NORTHWEST NATIONAL LABORATORY).

          --------------------
          2 ELECTRON INTEGRALS
          --------------------

 THE -PK- OPTION IS OFF, THE INTEGRALS ARE NOT IN SUPERMATRIX FORM.
 STORING   15000 INTEGRALS/RECORD ON DISK, USING 12 BYTES/INTEGRAL.
 TWO ELECTRON INTEGRAL EVALUATION REQUIRES   91386 WORDS OF MEMORY.
 SCHWARZ INEQUALITY OVERHEAD:      4940 INTEGRALS, T=        0.01
 II,JST,KST,LST =  1  1  1  1 NREC =         1 INTLOC =    1
 II,JST,KST,LST =  2  1  1  1 NREC =         1 INTLOC =    1
 II,JST,KST,LST =  3  1  1  1 NREC =         1 INTLOC =    1
 II,JST,KST,LST =  4  1  1  1 NREC =         1 INTLOC =    1
 II,JST,KST,LST =  5  1  1  1 NREC =         1 INTLOC =    1
 II,JST,KST,LST =  6  1  1  1 NREC =         1 INTLOC =    1
 II,JST,KST,LST =  7  1  1  1 NREC =         1 INTLOC =  621
 II,JST,KST,LST =  8  1  1  1 NREC =         1 INTLOC = 2016
 II,JST,KST,LST =  9  1  1  1 NREC =         1 INTLOC = 2016
 II,JST,KST,LST = 10  1  1  1 NREC =         1 INTLOC = 2493
 II,JST,KST,LST = 11  1  1  1 NREC =         1 INTLOC = 2493
 II,JST,KST,LST = 12  1  1  1 NREC =         1 INTLOC = 2683
 II,JST,KST,LST = 13  1  1  1 NREC =         1 INTLOC = 5401
 II,JST,KST,LST = 14  1  1  1 NREC =         1 INTLOC =14758
 II,JST,KST,LST = 15  1  1  1 NREC =         1 INTLOC =14758
 II,JST,KST,LST = 16  1  1  1 NREC =         2 INTLOC =   38
 II,JST,KST,LST = 17  1  1  1 NREC =         2 INTLOC = 3315
 II,JST,KST,LST = 18  1  1  1 NREC =         2 INTLOC = 9988
 II,JST,KST,LST = 19  1  1  1 NREC =         2 INTLOC =12383
 II,JST,KST,LST = 20  1  1  1 NREC =         2 INTLOC =14225
 II,JST,KST,LST = 21  1  1  1 NREC =         3 INTLOC = 2308
 II,JST,KST,LST = 22  1  1  1 NREC =         3 INTLOC = 3718
 II,JST,KST,LST = 23  1  1  1 NREC =         4 INTLOC = 8251
 II,JST,KST,LST = 24  1  1  1 NREC =         5 INTLOC = 2300
 II,JST,KST,LST = 25  1  1  1 NREC =         8 INTLOC = 6851
 II,JST,KST,LST = 26  1  1  1 NREC =         9 INTLOC = 3382
 II,JST,KST,LST = 27  1  1  1 NREC =        11 INTLOC = 6136
 II,JST,KST,LST = 28  1  1  1 NREC =        12 INTLOC =14576
 II,JST,KST,LST = 29  1  1  1 NREC =        13 INTLOC =11025
 II,JST,KST,LST = 30  1  1  1 NREC =        14 INTLOC =  982
 II,JST,KST,LST = 31  1  1  1 NREC =        17 INTLOC = 1816
 II,JST,KST,LST = 32  1  1  1 NREC =        21 INTLOC = 3089
 II,JST,KST,LST = 33  1  1  1 NREC =        35 INTLOC = 6736
 II,JST,KST,LST = 34  1  1  1 NREC =        35 INTLOC = 6736
 II,JST,KST,LST = 35  1  1  1 NREC =        36 INTLOC = 5064
 II,JST,KST,LST = 36  1  1  1 NREC =        36 INTLOC =14654
 II,JST,KST,LST = 37  1  1  1 NREC =        40 INTLOC = 4797
 II,JST,KST,LST = 38  1  1  1 NREC =        42 INTLOC = 1987
 II,JST,KST,LST = 39  1  1  1 NREC =        57 INTLOC = 9996
 II,JST,KST,LST = 40  1  1  1 NREC =        70 INTLOC =10514
 II,JST,KST,LST = 41  1  1  1 NREC =        88 INTLOC =  454
 II,JST,KST,LST = 42  1  1  1 NREC =        88 INTLOC =  454
 II,JST,KST,LST = 43  1  1  1 NREC =        89 INTLOC =11724
 II,JST,KST,LST = 44  1  1  1 NREC =        93 INTLOC =14809
 SCHWARZ INEQUALITY TEST SKIPPED       78852 INTEGRAL BLOCKS.
 TOTAL NUMBER OF NONZERO TWO-ELECTRON INTEGRALS =            10507369
        704 INTEGRAL RECORDS WERE STORED ON DISK FILE  8.
  ...... END OF TWO-ELECTRON INTEGRALS .....
 CPU     0: STEP CPU TIME=     0.12 TOTAL CPU TIME=        0.2 (    0.0 MIN)
 TOTAL WALL CLOCK TIME=        0.2 SECONDS, CPU UTILIZATION IS  94.74%

          --------------------------
                 RHF SCF CALCULATION
          --------------------------

     NUCLEAR ENERGY =       190.5343568684
     MAXIT =  200     NPUNCH=    2
     EXTRAP=T  DAMP=F  SHIFT=F  RSTRCT=F  DIIS=F  DEM=F  SOSCF=T
     DENSITY MATRIX CONV=  1.00E-08
     SOSCF WILL OPTIMIZE    1638 ORBITAL ROTATIONS, SOGTOL=   0.250
     MEMORY REQUIRED FOR RHF ITERS=    106545 WORDS.

 ITER EX DEM     TOTAL ENERGY        E CHANGE  DENSITY CHANGE     ORB. GRAD
   1  0  0     -195.8707197697  -195.8707197697   0.137280788   0.000000000
          ---------------START SECOND ORDER SCF---------------
   2  1  0     -196.3015962709    -0.4308765012   0.046422305   0.027372154
   3  2  0     -196.3255794226    -0.0239831516   0.018115401   0.013041143
   4  3  0     -196.3299634821    -0.0043840595   0.006741540   0.002122661
   5  4  0     -196.3300968746    -0.0001333926   0.001232419   0.000392530
   6  5  0     -196.3301023161    -0.0000054415   0.000241725   0.000113435
   7  6  0     -196.3301026839    -0.0000003678   0.000081515   0.000021231
   8  7  0     -196.3301027095    -0.0000000256   0.000012910   0.000004333
   9  8  0     -196.3301027106    -0.0000000011   0.000003533   0.000000980
  10  9  0     -196.3301027107    -0.0000000001   0.000000888   0.000000361
  11 10  0     -196.3301027107    -0.0000000000   0.000000116   0.000000061
  12 11  0     -196.3301027107     0.0000000000   0.000000000   0.000000010

          -----------------
          DENSITY CONVERGED
          -----------------
     TIME TO FORM FOCK OPERATORS=       0.2 SECONDS (       0.0 SEC/ITER)
     TIME TO SOLVE SCF EQUATIONS=       0.0 SECONDS (       0.0 SEC/ITER)

 FINAL RHF ENERGY IS     -196.3301027107 AFTER  12 ITERATIONS

          ------------
          EIGENVECTORS
          ------------

                      1          2          3          4          5
                  -11.2131   -11.2130   -11.2116   -11.2070   -11.2070
                     A          A          A          A          A   
    1  C  1  S    0.037832  -0.027894  -0.013959   0.990862  -0.085314
    2  C  1  S    0.001053  -0.000796  -0.000676   0.028376  -0.002423
    3  C  1  X   -0.000021  -0.000115  -0.000120   0.000038   0.000039
    4  C  1  Y    0.000004  -0.000042  -0.000105   0.000016   0.000008
    5  C  1  Z   -0.000013   0.000027  -0.000024   0.000018  -0.000015
    6  C  1  S    0.002957  -0.002337   0.000290  -0.015275   0.001274
    7  C  1  X    0.000862  -0.000572   0.000308  -0.000469  -0.000117
    8  C  1  Y    0.000929  -0.000775   0.000175  -0.000427   0.000031
    9  C  1  Z   -0.000843   0.000747   0.000456   0.000311   0.000019
   10  C  1 XX   -0.000269   0.000113  -0.000012  -0.001817   0.000165
   11  C  1 YY   -0.000286   0.000162  -0.000010  -0.001816   0.000189
   12  C  1 ZZ   -0.000352   0.000213   0.000019  -0.001822   0.000187
   13  C  1 XY   -0.000099   0.000050   0.000077  -0.000012   0.000008
   14  C  1 XZ    0.000116  -0.000065  -0.000024   0.000024   0.000002
   15  C  1 YZ    0.000130  -0.000131  -0.000031   0.000014   0.000009
   16  H  2  S   -0.000129   0.000142  -0.000067   0.000151  -0.000020
   17  H  2  S   -0.000016  -0.000108  -0.000318   0.002636  -0.000253
   18  H  3  S   -0.000149   0.000078  -0.000018   0.000140   0.000035
   19  H  3  S   -0.000018  -0.000163  -0.000310   0.002685  -0.000294
   20  H  4  S   -0.000105   0.000092   0.000016   0.000126  -0.000020
   21  H  4  S    0.000127   0.000057   0.000388   0.002466  -0.000263
   22  C  5  S    0.024635   0.040287  -0.014306   0.085323   0.990846
   23  C  5  S    0.000679   0.001138  -0.000685   0.002463   0.028371
   24  C  5  X    0.000063  -0.000098   0.000120  -0.000045  -0.000031
   25  C  5  Y   -0.000012   0.000040  -0.000106   0.000010   0.000014
   26  C  5  Z    0.000002   0.000030   0.000024   0.000012  -0.000021
   27  C  5  S    0.001849   0.003283   0.000266  -0.001355  -0.015267
   28  C  5  X   -0.000582  -0.000858  -0.000301   0.000195   0.000441
   29  C  5  Y    0.000566   0.001070   0.000168  -0.000042  -0.000422
   30  C  5  Z    0.000498   0.001008  -0.000464  -0.000072  -0.000304
   31  C  5 XX   -0.000207  -0.000207  -0.000010  -0.000148  -0.001818
   32  C  5 YY   -0.000203  -0.000259  -0.000008  -0.000124  -0.001821
   33  C  5 ZZ   -0.000245  -0.000330   0.000022  -0.000127  -0.001827
   34  C  5 XY    0.000073   0.000083  -0.000077  -0.000006   0.000013
   35  C  5 XZ    0.000082   0.000103  -0.000025   0.000006   0.000022
   36  C  5 YZ   -0.000071  -0.000170   0.000032  -0.000011  -0.000012
   37  H  6  S   -0.000063  -0.000124   0.000017   0.000002   0.000128
   38  H  6  S    0.000138  -0.000001   0.000389   0.000163   0.002475
   39  H  7  S   -0.000109  -0.000129  -0.000017   0.000058   0.000132
   40  H  7  S   -0.000077   0.000141  -0.000311   0.000168   0.002695
   41  H  8  S   -0.000065  -0.000181  -0.000065   0.000006   0.000151
   42  H  8  S   -0.000054   0.000093  -0.000320   0.000201   0.002639
   43  C  9  S    0.527599   0.819798  -0.197169  -0.004087  -0.049235
   44  C  9  S    0.014921   0.023685  -0.005515  -0.000085  -0.001261
   45  C  9  X    0.000071  -0.000088  -0.000125   0.000082   0.000035
   46  C  9  Y    0.000031  -0.000066   0.000038   0.000001  -0.000021
   47  C  9  Z    0.000029  -0.000137  -0.000034  -0.000014   0.000012
   48  C  9  S   -0.007215  -0.014590   0.006883   0.000179   0.003886
   49  C  9  X   -0.000626   0.000346  -0.001464   0.000112   0.000992
   50  C  9  Y    0.000069   0.000304   0.001007  -0.000197  -0.001112
   51  C  9  Z   -0.000032   0.000970  -0.000578  -0.000023  -0.001054
   52  C  9 XX   -0.000999  -0.001281   0.000077  -0.000069  -0.000133
   53  C  9 YY   -0.000980  -0.001272   0.000087  -0.000016  -0.000142
   54  C  9 ZZ   -0.001004  -0.001288   0.000165  -0.000024  -0.000190
   55  C  9 XY    0.000074   0.000068   0.000175   0.000006   0.000140
   56  C  9 XZ   -0.000010  -0.000035  -0.000116   0.000004   0.000109
   57  C  9 YZ    0.000014  -0.000020   0.000079  -0.000045  -0.000147
   58  H 10  S    0.000076   0.000189  -0.000153   0.000009  -0.000128
   59  H 10  S    0.001688   0.001923  -0.000715   0.000039  -0.000055
   60  H 11  S    0.000038   0.000189  -0.000185  -0.000043  -0.000147
   61  H 11  S    0.001204   0.002456  -0.000572  -0.000064  -0.000014
   62  C 12  S    0.269220   0.056866   0.957085   0.005061   0.004266
   63  C 12  S    0.007868   0.001660   0.027419  -0.000150  -0.000126
   64  C 12  X   -0.000025   0.000127   0.000000   0.000077  -0.000091
   65  C 12  Y   -0.000070  -0.000014  -0.000088   0.000122   0.000103
   66  C 12  Z   -0.000005   0.000026  -0.000000  -0.000054   0.000064
   67  C 12  S    0.000093  -0.000057  -0.018068   0.000688   0.000578
   68  C 12  X   -0.000449   0.002277  -0.000013  -0.000206   0.000246
   69  C 12  Y   -0.000828  -0.000158   0.001343  -0.000391  -0.000328
   70  C 12  Z   -0.000211   0.001072  -0.000006   0.000283  -0.000336
   71  C 12 XX   -0.000834  -0.000170  -0.001389  -0.000076  -0.000064
   72  C 12 YY   -0.000723  -0.000148  -0.001458  -0.000092  -0.000078
   73  C 12 ZZ   -0.000666  -0.000137  -0.001406  -0.000078  -0.000065
   74  C 12 XY   -0.000035   0.000181   0.000000   0.000044  -0.000053
   75  C 12 XZ   -0.000226  -0.000044   0.000009   0.000019   0.000016
   76  C 12 YZ   -0.000022   0.000113  -0.000001  -0.000003   0.000004
   77  H 13  S   -0.000117   0.000010   0.000269  -0.000049  -0.000002
   78  H 13  S    0.000689   0.000078   0.002546  -0.000226   0.000388
   79  H 14  S   -0.000105  -0.000051   0.000269  -0.000010  -0.000048
   80  H 14  S    0.000664   0.000210   0.002548   0.000344  -0.000290
   81  C 15  S    0.799081  -0.560467  -0.191527  -0.048900   0.004362
   82  C 15  S    0.022787  -0.016312  -0.005351  -0.001249   0.000131
   83  C 15  X   -0.000032  -0.000108   0.000126  -0.000048  -0.000075
   84  C 15  Y    0.000004   0.000073   0.000036  -0.000021   0.000005
   85  C 15  Z    0.000025  -0.000137   0.000035  -0.000010   0.000016
   86  C 15  S   -0.012214   0.010825   0.006774   0.003857  -0.000486
   87  C 15  X    0.000445   0.000568   0.001459  -0.000998   0.000060
   88  C 15  Y    0.000174  -0.000244   0.001012  -0.001127  -0.000004
   89  C 15  Z   -0.000339   0.000914   0.000570   0.001043  -0.000157
   90  C 15 XX   -0.001410   0.000808   0.000069  -0.000143  -0.000045
   91  C 15 YY   -0.001389   0.000807   0.000078  -0.000144   0.000009
   92  C 15 ZZ   -0.001416   0.000813   0.000156  -0.000192   0.000008
   93  C 15 XY   -0.000093   0.000033  -0.000176  -0.000139   0.000019
   94  C 15 XZ   -0.000024   0.000029  -0.000116   0.000109  -0.000015
   95  C 15 YZ   -0.000004  -0.000026  -0.000079   0.000152   0.000019
   96  H 16  S    0.000143  -0.000148  -0.000152  -0.000125   0.000031
   97  H 16  S    0.002288  -0.001144  -0.000701  -0.000048   0.000048
   98  H 17  S    0.000105  -0.000161  -0.000183  -0.000152  -0.000018
   99  H 17  S    0.002047  -0.001823  -0.000555  -0.000023  -0.000060

                      6          7          8          9         10
                   -1.0785    -1.0088    -0.9230    -0.8431    -0.7610
                     A          A          A          A          A   
    1  C  1  S   -0.065960  -0.107021   0.110367   0.083624  -0.045134
    2  C  1  S    0.122215   0.197959  -0.204572  -0.155546   0.083497
    3  C  1  X    0.024511   0.015778   0.015673   0.037256  -0.045640
    4  C  1  Y    0.024623   0.023119   0.017325   0.051333  -0.046183
    5  C  1  Z   -0.021770  -0.025806  -0.005366  -0.063046   0.092499
    6  C  1  S    0.097216   0.178260  -0.210890  -0.181992   0.114160
    7  C  1  X    0.003509   0.001061   0.005068   0.008574  -0.014873
    8  C  1  Y    0.003289   0.002493   0.005439   0.014612  -0.015760
    9  C  1  Z   -0.003208  -0.002556  -0.003402  -0.020741   0.030838
   10  C  1 XX    0.003310   0.004335  -0.004942  -0.004750   0.002767
   11  C  1 YY    0.003697   0.005311  -0.004246  -0.003311   0.002978
   12  C  1 ZZ    0.003632   0.005606  -0.004740  -0.001549  -0.000673
   13  C  1 XY    0.002460   0.001913   0.002216   0.005652  -0.005426
   14  C  1 XZ   -0.002619  -0.001843  -0.002490  -0.006010   0.005154
   15  C  1 YZ   -0.002886  -0.002259  -0.002227  -0.006889   0.007957
   16  H  2  S    0.036279   0.064222  -0.076650  -0.079077   0.069443
   17  H  2  S    0.006969   0.013246  -0.020773  -0.030261   0.035054
   18  H  3  S    0.037172   0.062027  -0.079806  -0.082491   0.056204
   19  H  3  S    0.007810   0.010971  -0.024054  -0.031998   0.023694
   20  H  4  S    0.033127   0.065285  -0.084635  -0.073682   0.043783
   21  H  4  S    0.004925   0.013843  -0.025262  -0.029306   0.020272
   22  C  5  S   -0.065985   0.107014   0.110328  -0.083647  -0.045158
   23  C  5  S    0.122260  -0.197941  -0.204490   0.155582   0.083539
   24  C  5  X   -0.024499   0.015745  -0.015686   0.037242   0.045618
   25  C  5  Y    0.024648  -0.023134   0.017344  -0.051447  -0.046349
   26  C  5  Z    0.021788  -0.025825   0.005343  -0.063067  -0.092547
   27  C  5  S    0.097245  -0.178251  -0.210847   0.182067   0.114231
   28  C  5  X   -0.003492   0.001042  -0.005071   0.008558   0.014853
   29  C  5  Y    0.003302  -0.002490   0.005463  -0.014672  -0.015848
   30  C  5  Z    0.003210  -0.002566   0.003380  -0.020739  -0.030851
   31  C  5 XX    0.003296  -0.004312  -0.004920   0.004742   0.002770
   32  C  5 YY    0.003710  -0.005329  -0.004262   0.003323   0.002984
   33  C  5 ZZ    0.003633  -0.005606  -0.004740   0.001550  -0.000674
   34  C  5 XY   -0.002465   0.001920  -0.002207   0.005648   0.005429
   35  C  5 XZ   -0.002623   0.001849  -0.002479   0.005999   0.005145
   36  C  5 YZ    0.002889  -0.002261   0.002226  -0.006893  -0.007961
   37  H  6  S    0.033134  -0.065270  -0.084599   0.073700   0.043809
   38  H  6  S    0.004927  -0.013837  -0.025245   0.029310   0.020286
   39  H  7  S    0.037161  -0.061988  -0.079760   0.082549   0.056303
   40  H  7  S    0.007823  -0.010969  -0.024039   0.032022   0.023728
   41  H  8  S    0.036292  -0.064223  -0.076631   0.079095   0.069453
   42  H  8  S    0.006964  -0.013246  -0.020773   0.030270   0.035066
   43  C  9  S   -0.103975   0.099886  -0.006979   0.093398   0.083573
   44  C  9  S    0.192562  -0.184802   0.012862  -0.175105  -0.156992
   45  C  9  X   -0.023908  -0.035572  -0.083306   0.026612  -0.049612
   46  C  9  Y    0.007705   0.024195   0.082906  -0.049819   0.047046
   47  C  9  Z   -0.030126   0.021887   0.014092  -0.075827  -0.103108
   48  C  9  S    0.154536  -0.166667   0.013584  -0.199831  -0.205606
   49  C  9  X   -0.003273  -0.007794  -0.018318   0.007577  -0.016144
   50  C  9  Y    0.001800   0.006099   0.020491  -0.013655   0.017500
   51  C  9  Z   -0.003579   0.002301   0.004477  -0.025125  -0.040169
   52  C  9 XX    0.006305  -0.001963   0.003685  -0.002846   0.000806
   53  C  9 YY    0.004112  -0.004780  -0.000400  -0.003837  -0.002086
   54  C  9 ZZ    0.003925  -0.004995  -0.002835  -0.001218  -0.004625
   55  C  9 XY   -0.003561   0.000544  -0.001502  -0.007659  -0.013583
   56  C  9 XZ    0.001659   0.003828   0.009215  -0.003502   0.002690
   57  C  9 YZ   -0.000739  -0.003800  -0.008284   0.006035   0.001106
   58  H 10  S    0.054737  -0.063657   0.007321  -0.091599  -0.090074
   59  H 10  S    0.007769  -0.013795   0.001094  -0.034339  -0.042098
   60  H 11  S    0.057238  -0.057136   0.000642  -0.089373  -0.110859
   61  H 11  S    0.009644  -0.009350  -0.002088  -0.035069  -0.048697
   62  C 12  S   -0.117381  -0.000028  -0.118159   0.000019  -0.092341
   63  C 12  S    0.217133   0.000058   0.219620  -0.000025   0.173855
   64  C 12  X    0.000033  -0.078756   0.000051  -0.098876   0.000099
   65  C 12  Y   -0.037912  -0.000040   0.026351  -0.000099   0.124765
   66  C 12  Z   -0.000036  -0.031299  -0.000065  -0.092168  -0.000024
   67  C 12  S    0.174488   0.000028   0.225109  -0.000076   0.223961
   68  C 12  X    0.000031  -0.015957   0.000025  -0.026322   0.000008
[...]
    2             0.012754   0.036878   0.050409   0.054793   0.042318
    3             0.013879   0.032547   0.056982   0.060292   0.024732
    4             0.009848   0.038447   0.063874   0.047395   0.015633
    5             0.181473   0.425494   0.421624   0.288222   0.149366
    6             0.009848   0.038447   0.063873   0.047396   0.015632
    7             0.013879   0.032546   0.056980   0.060295   0.024733
    8             0.012754   0.036879   0.050410   0.054792   0.042316
    9             0.422300   0.373605   0.104474   0.341301   0.314489
   10             0.026612   0.036639   0.000414   0.071557   0.065636
   11             0.030532   0.027214   0.000080   0.070658   0.098724
   12             0.533226   0.057883   0.470610   0.127888   0.362108
   13             0.035988   0.000237   0.066835   0.001840   0.108050
   14             0.035988   0.000237   0.066834   0.001840   0.108052
   15             0.422300   0.373604   0.104476   0.341301   0.314485
   16             0.026612   0.036639   0.000414   0.071557   0.065636
   17             0.030531   0.027214   0.000080   0.070659   0.098723

                     11         12         13         14         15

                  2.000000   2.000000   2.000000   2.000000   2.000000

    1             0.206050   0.180780   0.406252   0.399582   0.322370
    2             0.016429   0.034495   0.125096   0.059876   0.061294
    3             0.082870   0.011838   0.031250   0.100674   0.067781
    4             0.032513   0.057511   0.123213   0.087619   0.060781
    5             0.206044   0.180779   0.406302   0.399566   0.322345
    6             0.032513   0.057507   0.123241   0.087611   0.060764
    7             0.082864   0.011840   0.031232   0.100655   0.067825
    8             0.016434   0.034494   0.125133   0.059883   0.061245
    9             0.353466   0.268808   0.147503   0.191696   0.188039
   10             0.157199   0.012925   0.000117   0.076243   0.000035
   11             0.028753   0.108539   0.048214   0.014257   0.001725
   12             0.196917   0.426780   0.157351   0.083104   0.416016
   13             0.024240   0.111735   0.039633   0.028522   0.089996
   14             0.024217   0.111757   0.039649   0.028513   0.089987
   15             0.353505   0.268778   0.147495   0.191690   0.188036
   16             0.157214   0.012910   0.000117   0.076243   0.000035
   17             0.028769   0.108526   0.048203   0.014266   0.001726

                     16         17         18         19         20

                  2.000000   2.000000   2.000000   2.000000   2.000000

    1             0.367994   0.327444   0.354793   0.198713   0.146007
    2             0.040823   0.132158   0.101829   0.035455   0.031397
    3             0.133757   0.090408   0.049929   0.000060   0.033650
    4             0.092938   0.054220   0.051657   0.014289   0.029721
    5             0.367986   0.327435   0.354807   0.198686   0.146039
    6             0.092947   0.054243   0.051624   0.014277   0.029732
    7             0.133781   0.090382   0.049923   0.000060   0.033645
    8             0.040802   0.132142   0.101872   0.035468   0.031386
    9             0.207101   0.198727   0.270607   0.236018   0.304723
   10             0.079175   0.066344   0.014054   0.007124   0.066239
   11             0.028607   0.065465   0.087872   0.121653   0.101542
   12             0.085179   0.111148   0.110281   0.375453   0.368894
   13             0.006997   0.009672   0.014122   0.198963   0.102271
   14             0.006994   0.009673   0.014119   0.199020   0.102214
   15             0.207128   0.198721   0.270595   0.236020   0.304737
   16             0.079183   0.066338   0.014054   0.007122   0.066228
   17             0.028607   0.065479   0.087860   0.121620   0.101576

                     21

                  2.000000

    1             0.107737
    2             0.007955
    3             0.049761
    4             0.058888
    5             0.107733
    6             0.058892
    7             0.049769
    8             0.007948
    9             0.387074
   10             0.161592
   11             0.008671
   12             0.423111
   13             0.006767
   14             0.006772
   15             0.387058
   16             0.161603
   17             0.008670

               ----- POPULATIONS IN EACH AO -----
                             MULLIKEN      LOWDIN
              1  C  1  S      1.99662     1.98096
              2  C  1  S      0.62745     0.34937
              3  C  1  X      0.68755     0.62360
              4  C  1  Y      0.68889     0.62495
              5  C  1  Z      0.68511     0.62154
              6  C  1  S      0.64566     0.33023
              7  C  1  X      0.36569     0.47494
              8  C  1  Y      0.35568     0.46892
              9  C  1  Z      0.34953     0.46558
             10  C  1 XX      0.00483     0.14957
             11  C  1 YY      0.00306     0.14868
             12  C  1 ZZ      0.01427     0.14916
             13  C  1 XY      0.01173     0.02173
             14  C  1 XZ      0.01395     0.01784
             15  C  1 YZ      0.03244     0.02121
             16  H  2  S      0.52733     0.49358
             17  H  2  S      0.31717     0.36014
             18  H  3  S      0.52860     0.49460
             19  H  3  S      0.31236     0.35802
             20  H  4  S      0.52738     0.49350
             21  H  4  S      0.31166     0.35651
             22  C  5  S      1.99662     1.98096
             23  C  5  S      0.62745     0.34937
             24  C  5  X      0.68755     0.62360
             25  C  5  Y      0.68889     0.62495
             26  C  5  Z      0.68511     0.62154
             27  C  5  S      0.64566     0.33023
             28  C  5  X      0.36569     0.47494
             29  C  5  Y      0.35568     0.46892
             30  C  5  Z      0.34953     0.46558
             31  C  5 XX      0.00483     0.14956
             32  C  5 YY      0.00306     0.14868
             33  C  5 ZZ      0.01428     0.14916
             34  C  5 XY      0.01173     0.02173
             35  C  5 XZ      0.01395     0.01785
             36  C  5 YZ      0.03244     0.02121
             37  H  6  S      0.52738     0.49350
             38  H  6  S      0.31166     0.35651
             39  H  7  S      0.52860     0.49460
             40  H  7  S      0.31236     0.35802
             41  H  8  S      0.52733     0.49358
             42  H  8  S      0.31717     0.36014
             43  C  9  S      1.99682     1.97974
             44  C  9  S      0.62692     0.34443
             45  C  9  X      0.67746     0.61628
             46  C  9  Y      0.68226     0.61857
             47  C  9  Z      0.67830     0.61631
             48  C  9  S      0.61431     0.31106
             49  C  9  X      0.30587     0.41569
             50  C  9  Y      0.32598     0.43419
             51  C  9  Z      0.32182     0.43442
             52  C  9 XX      0.00523     0.14684
             53  C  9 YY      0.00356     0.14514
             54  C  9 ZZ      0.01597     0.14744
             55  C  9 XY      0.01234     0.02522
             56  C  9 XZ      0.01610     0.01960
             57  C  9 YZ      0.02573     0.02537
             58  H 10  S      0.53130     0.50274
             59  H 10  S      0.31114     0.35371
             60  H 11  S      0.53179     0.50339
             61  H 11  S      0.31129     0.35553
             62  C 12  S      1.99686     1.97958
             63  C 12  S      0.62779     0.34672
             64  C 12  X      0.67569     0.61682
             65  C 12  Y      0.67478     0.61472
             66  C 12  Z      0.68393     0.61891
             67  C 12  S      0.61371     0.31080
             68  C 12  X      0.27426     0.39080
             69  C 12  Y      0.32263     0.43224
             70  C 12  Z      0.35659     0.45720
             71  C 12 XX      0.00392     0.14984
             72  C 12 YY      0.00513     0.14551
             73  C 12 ZZ      0.01402     0.14770
             74  C 12 XY      0.01242     0.02177
             75  C 12 XZ      0.01761     0.02027
             76  C 12 YZ      0.02552     0.02794
             77  H 13  S      0.53111     0.50273
             78  H 13  S      0.31529     0.35654
             79  H 14  S      0.53111     0.50272
             80  H 14  S      0.31529     0.35654
             81  C 15  S      1.99682     1.97974
             82  C 15  S      0.62692     0.34443
             83  C 15  X      0.67746     0.61628
             84  C 15  Y      0.68226     0.61857
             85  C 15  Z      0.67830     0.61631
             86  C 15  S      0.61431     0.31106
             87  C 15  X      0.30586     0.41569
             88  C 15  Y      0.32599     0.43419
             89  C 15  Z      0.32182     0.43442
             90  C 15 XX      0.00523     0.14685
             91  C 15 YY      0.00356     0.14514
             92  C 15 ZZ      0.01597     0.14744
             93  C 15 XY      0.01234     0.02522
             94  C 15 XZ      0.01610     0.01960
             95  C 15 YZ      0.02573     0.02537
             96  H 16  S      0.53130     0.50275
             97  H 16  S      0.31114     0.35371
             98  H 17  S      0.53179     0.50340
             99  H 17  S      0.31129     0.35553

          ----- MULLIKEN ATOMIC OVERLAP POPULATIONS -----
          (OFF-DIAGONAL ELEMENTS NEED TO BE MULTIPLIED BY 2)

             1           2           3           4           5

    1    5.1081323
    2    0.3918325   0.5481965
    3    0.3926785  -0.0298545   0.5446855
    4    0.3962978  -0.0282192  -0.0289110   0.5375876
    5   -0.0003577   0.0000456   0.0001981  -0.0000148   5.1081304
    6   -0.0000148   0.0000005  -0.0000080   0.0000001   0.3962975
    7    0.0001980  -0.0000190   0.0005403  -0.0000080   0.3926784
    8    0.0000456  -0.0000003  -0.0000190   0.0000005   0.3918325
    9   -0.0015855  -0.0001307   0.0008048  -0.0000253   0.3335363
   10   -0.0000719  -0.0000377   0.0000346   0.0000017  -0.0421000
   11    0.0016580   0.0002055  -0.0013258   0.0000118  -0.0421255
   12   -0.0564665  -0.0027593  -0.0035339   0.0041718  -0.0564682
   13   -0.0037976   0.0030502   0.0001558  -0.0000938   0.0046200
   14    0.0046200  -0.0000360  -0.0001142  -0.0000863  -0.0037977
   15    0.3335345  -0.0395245  -0.0352411  -0.0361025  -0.0015848
   16   -0.0421003  -0.0026121   0.0041465  -0.0033924  -0.0000719
   17   -0.0421253   0.0043574  -0.0032801  -0.0021715   0.0016578

             6           7           8           9          10

    6    0.5375883
    7   -0.0289110   0.5446862
    8   -0.0282190  -0.0298544   0.5481957
    9   -0.0361027  -0.0352421  -0.0395233   5.0729804
   10   -0.0033912   0.0041466  -0.0026133   0.4067769   0.5567407
   11   -0.0021726  -0.0032790   0.0043574   0.3993402  -0.0324806
   12    0.0041719  -0.0035347  -0.0027588   0.3448957  -0.0420720
   13   -0.0000863  -0.0001141  -0.0000361  -0.0428137  -0.0037167
   14   -0.0000938   0.0001559   0.0030501  -0.0421967  -0.0030571
   15   -0.0000253   0.0008050  -0.0001305  -0.0519633   0.0044692
   16    0.0000017   0.0000346  -0.0000377   0.0044691  -0.0000780
   17    0.0000118  -0.0013256   0.0002053  -0.0045445  -0.0001101

            11          12          13          14          15

   11    0.5598908
   12   -0.0389623   5.0920996
   13   -0.0021906   0.4011061   0.5610479
   14    0.0045264   0.4011058  -0.0299987   0.5610480
   15   -0.0045452   0.3448962  -0.0421964  -0.0428134   5.0729787
   16   -0.0001101  -0.0420716  -0.0030576  -0.0037161   0.4067775
   17    0.0002771  -0.0389627   0.0045264  -0.0021911   0.3993397

            16          17

   16    0.5567396
   17   -0.0324806   0.5598926

          TOTAL MULLIKEN AND LOWDIN ATOMIC POPULATIONS
       ATOM         MULL.POP.    CHARGE          LOW.POP.     CHARGE
    1 C             6.482478   -0.482478         6.448297   -0.448297
    2 H             0.844495    0.155505         0.853723    0.146277
    3 H             0.840957    0.159043         0.852616    0.147384
    4 H             0.839047    0.160953         0.850005    0.149995
    5 C             6.482476   -0.482476         6.448299   -0.448299
    6 H             0.839047    0.160953         0.850004    0.149996
    7 H             0.840957    0.159043         0.852616    0.147384
    8 H             0.844495    0.155505         0.853723    0.146277
    9 C             6.308676   -0.308676         6.280299   -0.280299
   10 H             0.842441    0.157559         0.856454    0.143546
   11 H             0.843075    0.156925         0.858923    0.141077
   12 C             6.304857   -0.304857         6.280831   -0.280831
   13 H             0.846405    0.153595         0.859268    0.140732
   14 H             0.846405    0.153595         0.859268    0.140732
   15 C             6.308674   -0.308674         6.280298   -0.280298
   16 H             0.842441    0.157559         0.856454    0.143546
   17 H             0.843077    0.156923         0.858923    0.141077

          MULLIKEN SPHERICAL HARMONIC POPULATIONS
       ATOM           S       P       D      F      G      H      I    TOTAL
    1 C             3.30    3.13    0.05   0.00   0.00   0.00   0.00    6.48
    2 H             0.84    0.00    0.00   0.00   0.00   0.00   0.00    0.84
    3 H             0.84    0.00    0.00   0.00   0.00   0.00   0.00    0.84
    4 H             0.84    0.00    0.00   0.00   0.00   0.00   0.00    0.84
    5 C             3.30    3.13    0.05   0.00   0.00   0.00   0.00    6.48
    6 H             0.84    0.00    0.00   0.00   0.00   0.00   0.00    0.84
    7 H             0.84    0.00    0.00   0.00   0.00   0.00   0.00    0.84
    8 H             0.84    0.00    0.00   0.00   0.00   0.00   0.00    0.84
    9 C             3.26    2.99    0.05   0.00   0.00   0.00   0.00    6.31
   10 H             0.84    0.00    0.00   0.00   0.00   0.00   0.00    0.84
   11 H             0.84    0.00    0.00   0.00   0.00   0.00   0.00    0.84
   12 C             3.26    2.99    0.05   0.00   0.00   0.00   0.00    6.30
   13 H             0.85    0.00    0.00   0.00   0.00   0.00   0.00    0.85
   14 H             0.85    0.00    0.00   0.00   0.00   0.00   0.00    0.85
   15 C             3.26    2.99    0.05   0.00   0.00   0.00   0.00    6.31
   16 H             0.84    0.00    0.00   0.00   0.00   0.00   0.00    0.84
   17 H             0.84    0.00    0.00   0.00   0.00   0.00   0.00    0.84

          -------------------------------
          BOND ORDER AND VALENCE ANALYSIS     BOND ORDER THRESHOLD=0.050
          -------------------------------

                   BOND                       BOND                       BOND
  ATOM PAIR DIST  ORDER      ATOM PAIR DIST  ORDER      ATOM PAIR DIST  ORDER
    1   2  1.087  0.960        1   3  1.085  0.959        1   4  1.086  0.963
    1  15  1.530  0.974        5   6  1.086  0.963        5   7  1.085  0.959
    5   8  1.087  0.960        5   9  1.530  0.974        9  10  1.087  0.962
    9  11  1.087  0.957        9  12  1.534  0.976       12  13  1.088  0.960
   12  14  1.088  0.960       12  15  1.534  0.976       15  16  1.087  0.962
   15  17  1.087  0.957

                       TOTAL       BONDED        FREE
      ATOM            VALENCE     VALENCE     VALENCE
    1 C                 3.810       3.810       0.000
    2 H                 0.933       0.933       0.000
    3 H                 0.931       0.931       0.000
    4 H                 0.932       0.932      -0.000
    5 C                 3.810       3.810       0.000
    6 H                 0.932       0.932      -0.000
    7 H                 0.931       0.931       0.000
    8 H                 0.933       0.933       0.000
    9 C                 3.789       3.789      -0.000
   10 H                 0.927       0.927      -0.000
   11 H                 0.927       0.927      -0.000
   12 C                 3.780       3.780      -0.000
   13 H                 0.929       0.929      -0.000
   14 H                 0.929       0.929      -0.000
   15 C                 3.789       3.789       0.000
   16 H                 0.927       0.927      -0.000
   17 H                 0.927       0.927      -0.000

          ---------------------
          ELECTROSTATIC MOMENTS
          ---------------------

 POINT   1           X           Y           Z (BOHR)    CHARGE
                 0.000000    0.000000    0.000000        0.00 (A.U.)
         DX          DY          DZ         /D/  (DEBYE)
    -0.000004    0.051886    0.000001    0.051886
 ...... END OF PROPERTY EVALUATION ......
 CPU     0: STEP CPU TIME=     0.02 TOTAL CPU TIME=        6.6 (    0.1 MIN)
 TOTAL WALL CLOCK TIME=        6.9 SECONDS, CPU UTILIZATION IS  96.36%
  $VIB   
          IVIB=   0 IATOM=   0 ICOORD=   0 E=     -196.3301051456
  4.162593265E-07 1.231471912E-07-4.660501244E-07 3.466302280E-07-6.733839395E-08
  2.873923176E-07-2.709834169E-07-3.439855364E-07-2.017040652E-07-3.412032865E-07
  3.652677963E-07 2.188520132E-07-9.111791358E-08 6.977712943E-08-9.159572601E-08
 -2.934113785E-08-3.421876225E-08 2.973232272E-08 2.739415084E-08 1.265412185E-08
 -2.269189532E-08 1.728355397E-07 1.928621305E-08 6.314428936E-08-2.367075550E-07
 -4.399706454E-08 5.927284434E-07-1.446313272E-07 8.952509867E-08-1.036911243E-07
  1.205031190E-07-1.651934958E-07-1.085453779E-07 1.331744399E-08-1.363359014E-07
 -5.496961783E-07 3.542211885E-07 2.717534601E-07-4.689829919E-08-1.248057885E-07
  1.022058664E-10 7.577020308E-08-4.586548460E-07 5.224279531E-08 2.244655509E-07
 -4.185805117E-07-4.719082219E-07-1.694612211E-07 6.648647867E-07 2.592213646E-07
  2.682488716E-07
 -4.352902527E-06 5.188551118E-02 9.841741364E-07
 ......END OF GEOMETRY SEARCH......
 CPU     0: STEP CPU TIME=     0.00 TOTAL CPU TIME=        6.6 (    0.1 MIN)
 TOTAL WALL CLOCK TIME=        6.9 SECONDS, CPU UTILIZATION IS  96.22%
              1133387  WORDS OF DYNAMIC MEMORY USED
 EXECUTION OF GAMESS TERMINATED NORMALLY Thu Jan 18 12:03:28 2018
 DDI: 263624 bytes (0.3 MB / 0 MWords) used by master data server.

 ----------------------------------------
 CPU timing information for all processes
 ========================================
 0: 5.769 + 0.856 = 6.625
 1: 5.729 + 0.753 = 6.483
 2: 5.679 + 0.776 = 6.456
 3: 5.658 + 0.742 = 6.401
 4: 5.689 + 0.775 = 6.465
 5: 5.602 + 0.750 = 6.353
 6: 5.752 + 0.793 = 6.546
 7: 5.658 + 0.707 = 6.366
 ----------------------------------------
 ddikick.x: exited gracefully.
unset echo
----- accounting info -----
Files used on the master node wr34 were:
-rw-r--r-- 1 kkirsc3m fb03-hpc   775671 Jan 18 12:03 /tmp/8025.wr0.wr.inf.h-brs.de/molecule-3-gam.dat
-rw-r--r-- 1 kkirsc3m fb03-hpc     1262 Jan 18 12:03 /tmp/8025.wr0.wr.inf.h-brs.de/molecule-3-gam.F05
-rw-r--r-- 1 kkirsc3m fb03-hpc 16561472 Jan 18 12:03 /tmp/8025.wr0.wr.inf.h-brs.de/molecule-3-gam.F08
-rw-r--r-- 1 kkirsc3m fb03-hpc 14761312 Jan 18 12:03 /tmp/8025.wr0.wr.inf.h-brs.de/molecule-3-gam.F08.001
-rw-r--r-- 1 kkirsc3m fb03-hpc 18181616 Jan 18 12:03 /tmp/8025.wr0.wr.inf.h-brs.de/molecule-3-gam.F08.002
-rw-r--r-- 1 kkirsc3m fb03-hpc 15841408 Jan 18 12:03 /tmp/8025.wr0.wr.inf.h-brs.de/molecule-3-gam.F08.003
-rw-r--r-- 1 kkirsc3m fb03-hpc 16381456 Jan 18 12:03 /tmp/8025.wr0.wr.inf.h-brs.de/molecule-3-gam.F08.004
-rw-r--r-- 1 kkirsc3m fb03-hpc 14221264 Jan 18 12:03 /tmp/8025.wr0.wr.inf.h-brs.de/molecule-3-gam.F08.005
-rw-r--r-- 1 kkirsc3m fb03-hpc 15121344 Jan 18 12:03 /tmp/8025.wr0.wr.inf.h-brs.de/molecule-3-gam.F08.006
-rw-r--r-- 1 kkirsc3m fb03-hpc 15661392 Jan 18 12:03 /tmp/8025.wr0.wr.inf.h-brs.de/molecule-3-gam.F08.007
-rw-r--r-- 1 kkirsc3m fb03-hpc  2683040 Jan 18 12:03 /tmp/8025.wr0.wr.inf.h-brs.de/molecule-3-gam.F10
ls: No match.
ls: No match.
ls: No match.
Thu Jan 18 12:03:31 CET 2018
0.198u 0.180s 0:10.30 3.5%	0+0k 16+192io 0pf+0w
