----- GAMESS execution script 'rungms' -----
This job is running on host wr31
under operating system Linux at Thu Jan 18 12:03:21 CET 2018
PBS has assigned the following compute nodes to this run:
wr31
Available scratch disk space (Kbyte units) at beginning of the job is
Filesystem     1K-blocks    Used Available Use% Mounted on
/dev/sda2      379797844 9508244 350990324   3% /
GAMESS temporary binary files will be written to /tmp/8026.wr0.wr.inf.h-brs.de
GAMESS supplementary output files will be written to /tmp/8026.wr0.wr.inf.h-brs.de
Copying input file molecule-4-gam.inp to your run's scratch directory...
cp molecule-4-gam.inp /tmp/8026.wr0.wr.inf.h-brs.de/molecule-4-gam.F05
unset echo
/usr/local/hpc5/gamess-gnu/ddikick.x /usr/local/hpc5/gamess-gnu/gamess.00.x molecule-4-gam -ddi 1 8 wr31:cpus=8:netext=.myri -scr /tmp/8026.wr0.wr.inf.h-brs.de

 Distributed Data Interface kickoff program.
 Initiating 8 compute processes on 1 nodes to run the following command:
 /usr/local/hpc5/gamess-gnu/gamess.00.x molecule-4-gam 

          ******************************************************
          *         GAMESS VERSION =  1 MAY 2013 (R1)          *
          *             FROM IOWA STATE UNIVERSITY             *
          * M.W.SCHMIDT, K.K.BALDRIDGE, J.A.BOATZ, S.T.ELBERT, *
          *   M.S.GORDON, J.H.JENSEN, S.KOSEKI, N.MATSUNAGA,   *
          *          K.A.NGUYEN, S.J.SU, T.L.WINDUS,           *
          *       TOGETHER WITH M.DUPUIS, J.A.MONTGOMERY       *
          *         J.COMPUT.CHEM.  14, 1347-1363(1993)        *
          **************** 64 BIT LINUX VERSION ****************

  SINCE 1993, STUDENTS AND POSTDOCS WORKING AT IOWA STATE UNIVERSITY
  AND ALSO IN THEIR VARIOUS JOBS AFTER LEAVING ISU HAVE MADE IMPORTANT
  CONTRIBUTIONS TO THE CODE:
     IVANA ADAMOVIC, CHRISTINE AIKENS, YURI ALEXEEV, POOJA ARORA,
     ANDREY ASADCHEV, ROB BELL, PRADIPTA BANDYOPADHYAY, JONATHAN BENTZ,
     BRETT BODE, GALINA CHABAN, WEI CHEN, CHEOL HO CHOI, PAUL DAY,
     ALBERT DEFUSCO, TIM DUDLEY, DMITRI FEDOROV, GRAHAM FLETCHER,
     MARK FREITAG, KURT GLAESEMANN, DAN KEMP, GRANT MERRILL,
     NORIYUKI MINEZAWA, JONATHAN MULLIN, TAKESHI NAGATA,
     SEAN NEDD, HEATHER NETZLOFF, BOSILJKA NJEGIC, RYAN OLSON, MIKE PAK,
     JIM SHOEMAKER, LYUDMILA SLIPCHENKO, SAROM SOK, JIE SONG,
     TETSUYA TAKETSUGU, SIMON WEBB, SOOHAENG YOO, FEDERICO ZAHARIEV

  ADDITIONAL CODE HAS BEEN PROVIDED BY COLLABORATORS IN OTHER GROUPS:
     IOWA STATE UNIVERSITY:
          JOE IVANIC, LAIMUTIS BYTAUTAS, KLAUS RUEDENBERG
     UNIVERSITY OF TOKYO: KIMIHIKO HIRAO, TAKAHITO NAKAJIMA,
          TAKAO TSUNEDA, MUNEAKI KAMIYA, SUSUMU YANAGISAWA,
          KIYOSHI YAGI, MAHITO CHIBA, SEIKEN TOKURA, NAOAKI KAWAKAMI
     UNIVERSITY OF AARHUS: FRANK JENSEN
     UNIVERSITY OF IOWA: VISVALDAS KAIRYS, HUI LI
     NATIONAL INST. OF STANDARDS AND TECHNOLOGY: WALT STEVENS, DAVID GARMER
     UNIVERSITY OF PISA: BENEDETTA MENNUCCI, JACOPO TOMASI
     UNIVERSITY OF MEMPHIS: HENRY KURTZ, PRAKASHAN KORAMBATH
     UNIVERSITY OF ALBERTA: TOBY ZENG, MARIUSZ KLOBUKOWSKI
     UNIVERSITY OF NEW ENGLAND: MARK SPACKMAN
     MIE UNIVERSITY: HIROAKI UMEDA
     MICHIGAN STATE UNIVERSITY:
          KAROL KOWALSKI, MARTA WLOCH, JEFFREY GOUR, JESSE LUTZ,
          WEI LI, PIOTR PIECUCH
     UNIVERSITY OF SILESIA: MONIKA MUSIAL, STANISLAW KUCHARSKI
     FACULTES UNIVERSITAIRES NOTRE-DAME DE LA PAIX:
          OLIVIER QUINET, BENOIT CHAMPAGNE
     UNIVERSITY OF CALIFORNIA - SANTA BARBARA: BERNARD KIRTMAN
     INSTITUTE FOR MOLECULAR SCIENCE:
          KAZUYA ISHIMURA, MICHIO KATOUDA, AND SHIGERU NAGASE
     UNIVERSITY OF NOTRE DAME: DAN CHIPMAN
     KYUSHU UNIVERSITY:
          HARUYUKI NAKANO,
          FENG LONG GU, JACEK KORCHOWIEC, MARCIN MAKOWSKI, AND YURIKO AOKI,
          HIROTOSHI MORI AND EISAKU MIYOSHI
     PENNSYLVANIA STATE UNIVERSITY:
          TZVETELIN IORDANOV, CHET SWALINA, JONATHAN SKONE,
          SHARON HAMMES-SCHIFFER
     WASEDA UNIVERSITY:
          MASATO KOBAYASHI, TOMOKO AKAMA, TSUGUKI TOUMA,
          TAKESHI YOSHIKAWA, YASUHIRO IKABATA, HIROMI NAKAI
     NANJING UNIVERSITY: SHUHUA LI
     UNIVERSITY OF NEBRASKA:
          PEIFENG SU, DEJUN SI, NANDUN THELLAMUREGE, YALI WANG, HUI LI
     UNIVERSITY OF ZURICH:
          ROBERTO PEVERATI, KIM BALDRIDGE
     N. COPERNICUS UNIVERSITY AND JACKSON STATE UNIVERSITY:
          MARIA BARYSZ


 PARALLEL VERSION RUNNING ON     8 PROCESSORS IN     1 NODES.

 EXECUTION OF GAMESS BEGUN Thu Jan 18 12:03:22 2018

            ECHO OF THE FIRST FEW INPUT CARDS -
 INPUT CARD> $CONTRL ICHARG=0 NZVAR=45 MPLEVL=0 ISPHER=0                                    
 INPUT CARD>         RUNTYP=OPTIMIZE SCFTYP=RHF EXETYP=RUN                                  
 INPUT CARD>         MULT=1 UNITS=ANGS MAXIT=200                                            
 INPUT CARD>         COORD=PRINAXIS                       $END                              
 INPUT CARD> $BASIS  GBASIS=N31 NGAUSS=6 NDFUNC=1 NPFUNC=0                                  
 INPUT CARD>         DIFFSP=.F.                           $END                              
 INPUT CARD> $SCF    DIRSCF=.F. CONV=1.0E-08              $END                              
 INPUT CARD> $SYSTEM TIMLIM=50000 MWORDS=110 MEMDDI=0 $END                                  
 INPUT CARD> $FORCE  METHOD=SEMINUM VIBANL=.F.            $END                              
 INPUT CARD> $STATPT NSTEP=200 OPTTOL=1.0E-06             $END                              
 INPUT CARD> $GUESS  GUESS=HUCKEL                         $END                              
 INPUT CARD> $ZMAT   AUTO=.TRUE. DLC=.TRUE.               $END                              
 INPUT CARD> $DATA                                                                          
 INPUT CARD> Full optimization                                                              
 INPUT CARD> C1                                                                             
 INPUT CARD> C     6.0      1.651   0.995  -0.041                                           
 INPUT CARD> H     1.0      1.497   1.372   0.966                                           
 INPUT CARD> H     1.0      1.002   1.553  -0.708                                           
 INPUT CARD> H     1.0      2.675   1.218  -0.324                                           
 INPUT CARD> C     6.0     -1.835   0.822   0.166                                           
 INPUT CARD> H     1.0     -2.691   1.126  -0.429                                           
 INPUT CARD> H     1.0     -2.183   0.659   1.182                                           
 INPUT CARD> H     1.0     -1.139   1.653   0.189                                           
 INPUT CARD> C     6.0     -1.203  -0.452  -0.400                                           
 INPUT CARD> H     1.0     -0.925  -0.292  -1.440                                           
 INPUT CARD> H     1.0     -1.968  -1.224  -0.413                                           
 INPUT CARD> C     6.0      0.015  -0.976   0.385                                           
 INPUT CARD> H     1.0     -0.092  -0.715   1.437                                           
 INPUT CARD> H     1.0      0.012  -2.062   0.346                                           
 INPUT CARD> C     6.0      1.388  -0.510  -0.118                                           
 INPUT CARD> H     1.0      2.151  -1.025   0.461                                           
 INPUT CARD> H     1.0      1.517  -0.841  -1.146                                           
 INPUT CARD> $END                                                                           
  110000000 WORDS OF MEMORY AVAILABLE

     BASIS OPTIONS
     -------------
     GBASIS=N31          IGAUSS=       6      POLAR=POPN31  
     NDFUNC=       1     NFFUNC=       0     DIFFSP=       F
     NPFUNC=       0      DIFFS=       F     BASNAM=        


     RUN TITLE
     ---------
  Full optimization                                                              

 THE POINT GROUP OF THE MOLECULE IS C1      
 THE ORDER OF THE PRINCIPAL AXIS IS     0

 THE MOMENTS OF INERTIA ARE (AMU-ANGSTROM**2)
 IXX=    68.836   IYY=   162.653   IZZ=   204.715

 ATOM      ATOMIC                      COORDINATES (BOHR)
           CHARGE         X                   Y                   Z
 C           6.0     3.1035810746        1.9068786719       -0.0368263380
 H           1.0     2.7914045097        2.6005022122        1.8697175319
 H           1.0     1.8786394452        2.9620580228       -1.2981266577
 H           1.0     5.0393445962        2.3487212773       -0.5523022883
 C           6.0    -3.4840059715        1.5226097436        0.2981402663
 H           1.0    -5.0972198554        2.0934555026       -0.8343759511
 H           1.0    -4.1544654458        1.1927015679        2.2100103005
 H           1.0    -2.1821756590        3.1032697591        0.3656626604
 C           6.0    -2.2612822285       -0.8657409068       -0.7822380291
 H           1.0    -1.7226835454       -0.5421958662       -2.7405788068
 H           1.0    -3.6945685252       -2.3361464384       -0.8309696952
 C           6.0     0.0365193831       -1.8497770776        0.7112973180
 H           1.0    -0.1857169335       -1.3753495548        2.7017219679
 H           1.0     0.0484088413       -3.9012872209        0.6200423870
 C           6.0     2.6312972184       -0.9397810476       -0.2106254286
 H           1.0     4.0723175481       -1.9105115410        0.8868299724
 H           1.0     2.8958339567       -1.5465293081       -2.1564918024

          INTERNUCLEAR DISTANCES (ANGS.)
          ------------------------------

                1 C          2 H          3 H          4 H          5 C     

   1 C       0.0000000    1.0862293 *  1.0851055 *  1.0855386 *  3.4964230  
   2 H       1.0862293 *  0.0000000    1.7550105 *  1.7537104 *  3.4705510  
   3 H       1.0851055 *  1.7550105 *  0.0000000    1.7488882 *  3.0572547  
   4 H       1.0855386 *  1.7537104 *  1.7488882 *  0.0000000    4.5537914  
   5 C       3.4964230    3.4705510    3.0572547    4.5537914    0.0000000  
   6 H       4.3612692    4.4210728    3.7280583    5.3678157    1.0858992 *
   7 H       4.0383389    3.7546538    3.8099293    5.1167061    1.0862454 *
   8 H       2.8757545 *  2.7624601 *  2.3234651 *  3.8728530    1.0842075 *
   9 C       3.2199388    3.5331193    2.9961499 *  4.2229800    1.5306391 *
  10 H       3.2014600    3.7978699    2.7664378 *  4.0602409    2.1559991 *
  11 H       4.2613972    4.5439060    4.0767210    5.2467832    2.1305037 *
  12 C       2.5966927 *  2.8367215 *  2.9265439 *  3.5202155    2.5890664 *
  13 H       2.8542307 *  2.6650199 *  3.3078218    3.8070854    2.6487467 *
  14 H       3.4901775    3.7923582    3.8934870    4.2777177    3.4294701  
  15 C       1.5297461 *  2.1745944 *  2.1801525 *  2.1644373 *  3.4989440  
  16 H       2.1406550 *  2.5354191 *  3.0549707    2.4334852 *  4.4030251  
  17 H       2.1470624 *  3.0591360    2.4876304 *  2.5012255 *  3.9652008  

                6 H          7 H          8 H          9 C         10 H     

   1 C       4.3612692    4.0383389    2.8757545 *  3.2199388    3.2014600  
   2 H       4.4210728    3.7546538    2.7624601 *  3.5331193    3.7978699  
   3 H       3.7280583    3.8099293    2.3234651 *  2.9961499 *  2.7664378 *
   4 H       5.3678157    5.1167061    3.8728530    4.2229800    4.0602409  
   5 C       1.0858992 *  1.0862454 *  1.0842075 *  1.5306391 *  2.1559991 *
   6 H       0.0000000    1.7525621 *  1.7516726 *  2.1691171 *  2.4802421 *
   7 H       1.7525621 *  0.0000000    1.7504345 *  2.1673590 *  3.0597139  
   8 H       1.7516726 *  1.7504345 *  0.0000000    2.1867881 *  2.5460679 *
   9 C       2.1691171 *  2.1673590 *  2.1867881 *  0.0000000    1.0883400 *
  10 H       2.4802421 *  3.0597139    2.5460679 *  1.0883400 *  0.0000000  
  11 H       2.4587568 *  2.4770828 *  3.0539768    1.0869121 *  1.7352815 *
  12 C       3.5218512    2.8530051 *  2.8778070 *  1.5408845 *  2.1638117 *
  13 H       3.6913464    2.5149915 *  2.8742194 *  2.1628821 *  3.0248879  
  14 H       4.2509032    3.5945461    3.8923868    2.1505443 *  2.6834055 *
  15 C       4.4058436    3.9760033    3.3404411    2.6069463 *  2.6730464 *
  16 H       5.3725101    4.7052368    4.2508550    3.5098385    3.6895618  
  17 H       4.7000470    4.6216430    3.8802831    2.8471454 *  2.5201589 *

               11 H         12 C         13 H         14 H         15 C     

   1 C       4.2613972    2.5966927 *  2.8542307 *  3.4901775    1.5297461 *
   2 H       4.5439060    2.8367215 *  2.6650199 *  3.7923582    2.1745944 *
   3 H       4.0767210    2.9265439 *  3.3078218    3.8934870    2.1801525 *
   4 H       5.2467832    3.5202155    3.8070854    4.2777177    2.1644373 *
   5 C       2.1305037 *  2.5890664 *  2.6487467 *  3.4294701    3.4989440  
   6 H       2.4587568 *  3.5218512    3.6913464    4.2509032    4.4058436  
   7 H       2.4770828 *  2.8530051 *  2.5149915 *  3.5945461    3.9760033  
   8 H       3.0539768    2.8778070 *  2.8742194 *  3.8923868    3.3404411  
   9 C       1.0869121 *  1.5408845 *  2.1628821 *  2.1505443 *  2.6069463 *
  10 H       1.7352815 *  2.1638117 *  3.0248879    2.6834055 *  2.6730464 *
  11 H       0.0000000    2.1518822 *  2.6834599 *  2.2800713 *  3.4437708  
  12 C       2.1518822 *  0.0000000    1.0891621 *  1.0867042 *  1.5346967 *
  13 H       2.6834599 *  1.0891621 *  0.0000000    1.7365212 *  2.1564902 *
  14 H       2.2800713 *  1.0867042 *  1.7365212 *  0.0000000    2.1254120 *
  15 C       3.4437708    1.5346967 *  2.1564902 *  2.1254120 *  0.0000000  
  16 H       4.2154048    2.1379132 *  2.4657098 *  2.3798981 *  1.0874902 *
  17 H       3.5817877    2.1489974 *  3.0457587    2.4457984 *  1.0876516 *

               16 H         17 H     

   1 C       2.1406550 *  2.1470624 *
   2 H       2.5354191 *  3.0591360  
   3 H       3.0549707    2.4876304 *
   4 H       2.4334852 *  2.5012255 *
   5 C       4.4030251    3.9652008  
   6 H       5.3725101    4.7000470  
   7 H       4.7052368    4.6216430  
   8 H       4.2508550    3.8802831  
   9 C       3.5098385    2.8471454 *
  10 H       3.6895618    2.5201589 *
  11 H       4.2154048    3.5817877  
  12 C       2.1379132 *  2.1489974 *
  13 H       2.4657098 *  3.0457587  
  14 H       2.3798981 *  2.4457984 *
  15 C       1.0874902 *  1.0876516 *
  16 H       0.0000000    1.7373143 *
  17 H       1.7373143 *  0.0000000  

  * ... LESS THAN  3.000


     ATOMIC BASIS SET
     ----------------
 THE CONTRACTED PRIMITIVE FUNCTIONS HAVE BEEN UNNORMALIZED
 THE CONTRACTED BASIS FUNCTIONS ARE NOW NORMALIZED TO UNITY

  SHELL TYPE  PRIMITIVE        EXPONENT          CONTRACTION COEFFICIENT(S)

 C         

      1   S       1          3047.5248800    0.001834737132
      1   S       2           457.3695180    0.014037322813
      1   S       3           103.9486850    0.068842622264
      1   S       4            29.2101553    0.232184443216
      1   S       5             9.2866630    0.467941348435
      1   S       6             3.1639270    0.362311985337

      2   L       7             7.8682723   -0.119332419775    0.068999066591
      2   L       8             1.8812885   -0.160854151696    0.316423960957
      2   L       9             0.5442493    1.143456437840    0.744308290898

      3   L      10             0.1687145    1.000000000000    1.000000000000

      4   D      11             0.8000000    1.000000000000

 H         

      5   S      12            18.7311370    0.033494604338
      5   S      13             2.8253944    0.234726953484
      5   S      14             0.6401217    0.813757326146

      6   S      15             0.1612778    1.000000000000

 H         

      7   S      16            18.7311370    0.033494604338
      7   S      17             2.8253944    0.234726953484
      7   S      18             0.6401217    0.813757326146

      8   S      19             0.1612778    1.000000000000

 H         

      9   S      20            18.7311370    0.033494604338
      9   S      21             2.8253944    0.234726953484
      9   S      22             0.6401217    0.813757326146

     10   S      23             0.1612778    1.000000000000

 C         

     11   S      24          3047.5248800    0.001834737132
     11   S      25           457.3695180    0.014037322813
     11   S      26           103.9486850    0.068842622264
     11   S      27            29.2101553    0.232184443216
     11   S      28             9.2866630    0.467941348435
     11   S      29             3.1639270    0.362311985337

     12   L      30             7.8682723   -0.119332419775    0.068999066591
     12   L      31             1.8812885   -0.160854151696    0.316423960957
     12   L      32             0.5442493    1.143456437840    0.744308290898

     13   L      33             0.1687145    1.000000000000    1.000000000000

     14   D      34             0.8000000    1.000000000000

 H         

     15   S      35            18.7311370    0.033494604338
     15   S      36             2.8253944    0.234726953484
     15   S      37             0.6401217    0.813757326146

     16   S      38             0.1612778    1.000000000000

 H         

     17   S      39            18.7311370    0.033494604338
     17   S      40             2.8253944    0.234726953484
     17   S      41             0.6401217    0.813757326146

     18   S      42             0.1612778    1.000000000000

 H         

     19   S      43            18.7311370    0.033494604338
     19   S      44             2.8253944    0.234726953484
     19   S      45             0.6401217    0.813757326146

     20   S      46             0.1612778    1.000000000000

 C         

     21   S      47          3047.5248800    0.001834737132
     21   S      48           457.3695180    0.014037322813
     21   S      49           103.9486850    0.068842622264
     21   S      50            29.2101553    0.232184443216
     21   S      51             9.2866630    0.467941348435
     21   S      52             3.1639270    0.362311985337

     22   L      53             7.8682723   -0.119332419775    0.068999066591
     22   L      54             1.8812885   -0.160854151696    0.316423960957
     22   L      55             0.5442493    1.143456437840    0.744308290898

     23   L      56             0.1687145    1.000000000000    1.000000000000

     24   D      57             0.8000000    1.000000000000

 H         

     25   S      58            18.7311370    0.033494604338
     25   S      59             2.8253944    0.234726953484
     25   S      60             0.6401217    0.813757326146

     26   S      61             0.1612778    1.000000000000

 H         

     27   S      62            18.7311370    0.033494604338
     27   S      63             2.8253944    0.234726953484
     27   S      64             0.6401217    0.813757326146

     28   S      65             0.1612778    1.000000000000

 C         

     29   S      66          3047.5248800    0.001834737132
     29   S      67           457.3695180    0.014037322813
     29   S      68           103.9486850    0.068842622264
     29   S      69            29.2101553    0.232184443216
     29   S      70             9.2866630    0.467941348435
     29   S      71             3.1639270    0.362311985337

     30   L      72             7.8682723   -0.119332419775    0.068999066591
     30   L      73             1.8812885   -0.160854151696    0.316423960957
     30   L      74             0.5442493    1.143456437840    0.744308290898

     31   L      75             0.1687145    1.000000000000    1.000000000000

     32   D      76             0.8000000    1.000000000000

 H         

     33   S      77            18.7311370    0.033494604338
     33   S      78             2.8253944    0.234726953484
     33   S      79             0.6401217    0.813757326146

     34   S      80             0.1612778    1.000000000000

 H         

     35   S      81            18.7311370    0.033494604338
     35   S      82             2.8253944    0.234726953484
     35   S      83             0.6401217    0.813757326146

     36   S      84             0.1612778    1.000000000000

 C         

     37   S      85          3047.5248800    0.001834737132
     37   S      86           457.3695180    0.014037322813
     37   S      87           103.9486850    0.068842622264
     37   S      88            29.2101553    0.232184443216
     37   S      89             9.2866630    0.467941348435
     37   S      90             3.1639270    0.362311985337

     38   L      91             7.8682723   -0.119332419775    0.068999066591
     38   L      92             1.8812885   -0.160854151696    0.316423960957
     38   L      93             0.5442493    1.143456437840    0.744308290898

     39   L      94             0.1687145    1.000000000000    1.000000000000

     40   D      95             0.8000000    1.000000000000

 H         

     41   S      96            18.7311370    0.033494604338
     41   S      97             2.8253944    0.234726953484
     41   S      98             0.6401217    0.813757326146

     42   S      99             0.1612778    1.000000000000

 H         

     43   S     100            18.7311370    0.033494604338
     43   S     101             2.8253944    0.234726953484
     43   S     102             0.6401217    0.813757326146

     44   S     103             0.1612778    1.000000000000

 TOTAL NUMBER OF BASIS SET SHELLS             =   44
 NUMBER OF CARTESIAN GAUSSIAN BASIS FUNCTIONS =   99
 NUMBER OF ELECTRONS                          =   42
 CHARGE OF MOLECULE                           =    0
 SPIN MULTIPLICITY                            =    1
 NUMBER OF OCCUPIED ORBITALS (ALPHA)          =   21
 NUMBER OF OCCUPIED ORBITALS (BETA )          =   21
 TOTAL NUMBER OF ATOMS                        =   17
 THE NUCLEAR REPULSION ENERGY IS      190.2864835991

     $CONTRL OPTIONS
     ---------------
 SCFTYP=RHF          RUNTYP=OPTIMIZE     EXETYP=RUN     
 MPLEVL=       0     CITYP =NONE         CCTYP =NONE         VBTYP =NONE    
 DFTTYP=NONE         TDDFT =NONE    
 MULT  =       1     ICHARG=       0     NZVAR =      45     COORD =PRINAXIS
 PP    =NONE         RELWFN=NONE         LOCAL =NONE         NUMGRD=       F
 ISPHER=       0     NOSYM =       0     MAXIT =     200     UNITS =ANGS    
 PLTORB=       F     MOLPLT=       F     AIMPAC=       F     FRIEND=        
 NPRINT=       7     IREST =       0     GEOM  =INPUT   
 NORMF =       0     NORMP =       0     ITOL  =      20     ICUT  =       9
 INTTYP=BEST         GRDTYP=BEST         QMTTOL= 1.0E-06

     $SYSTEM OPTIONS
     ---------------
  REPLICATED MEMORY=   110000000 WORDS (ON EVERY NODE).
 DISTRIBUTED MEMDDI=           0 MILLION WORDS IN AGGREGATE,
 MEMDDI DISTRIBUTED OVER   8 PROCESSORS IS           0 WORDS/PROCESSOR.
 TOTAL MEMORY REQUESTED ON EACH PROCESSOR=   110000000 WORDS.
 TIMLIM=       50000.00 MINUTES, OR      34.7 DAYS.
 PARALL= T  BALTYP=  DLB     KDIAG=    0  COREFL= F
 MXSEQ2=     300 MXSEQ3=     150

          ----------------
          PROPERTIES INPUT
          ----------------

     MOMENTS            FIELD           POTENTIAL          DENSITY
 IEMOM =       1   IEFLD =       0   IEPOT =       0   IEDEN =       0
 WHERE =COMASS     WHERE =NUCLEI     WHERE =NUCLEI     WHERE =NUCLEI  
 OUTPUT=BOTH       OUTPUT=BOTH       OUTPUT=BOTH       OUTPUT=BOTH    
 IEMINT=       0   IEFINT=       0                     IEDINT=       0
                                                       MORB  =       0
          EXTRAPOLATION IN EFFECT
          SOSCF IN EFFECT
 ORBITAL PRINTING OPTION: NPREO=     1    99     2     1

     -------------------------------
     INTEGRAL TRANSFORMATION OPTIONS
     -------------------------------
     NWORD  =            0
     CUTOFF = 1.0E-09     MPTRAN =       0
     DIRTRF =       F     AOINTS =DUP     

          ----------------------
          INTEGRAL INPUT OPTIONS
          ----------------------
 NOPK  =       1 NORDER=       0 SCHWRZ=       T


 -----------------------------------------------
  STATISTICS ON AUTOMATIC COORDINATE GENERATION 
 -----------------------------------------------
  NUMBER OF USER SPECIFIED BONDS                             0
  NUMBER OF BONDS                                           16
  NUMBER OF ANGLES                                          30
  NUMBER OF TORSIONS                                        36
  NUMBER OF EXTRA COORD.                                     0
  NUMBER OF EXTRA COORD. FOR CONSTRAINTS                     0
  NUMBER OF CONSTRAINED COORD.                               0

  TOTAL NUMBER OF PRIMITIVES                                82
 -----------------------------------------------

   --- ENCODED Z MATRIX ---
 COORD  TYPE   I   J   K   L   M   N
    1      1    1   4
    2      1    1  15
    3      1    1   2
    4      1    1   3
    5      1    5   8
    6      1    5   7
    7      1    5   9
    8      1    5   6
    9      1    9  12
   10      1    9  11
   11      1    9  10
   12      1   12  15
   13      1   12  14
   14      1   12  13
   15      1   15  16
   16      1   15  17
   17      2    1  15  17
   18      2    1  15  16
   19      2    1  15  12
   20      2    2   1   3
   21      2    2   1   4
   22      2    2   1  15
   23      2    3   1   4
   24      2    3   1  15
   25      2    4   1  15
   26      2    5   9  10
   27      2    5   9  11
   28      2    5   9  12
   29      2    6   5   9
   30      2    6   5   7
   31      2    6   5   8
   32      2    7   5   9
   33      2    7   5   8
   34      2    8   5   9
   35      2    9  12  13
   36      2    9  12  14
   37      2    9  12  15
   38      2   10   9  11
   39      2   10   9  12
   40      2   11   9  12
   41      2   12  15  17
   42      2   12  15  16
   43      2   13  12  14
   44      2   13  12  15
   45      2   14  12  15
   46      2   16  15  17
   47      3    1  15  12  13
   48      3    1  15  12  14
   49      3    1  15  12   9
   50      3    2   1  15  16
   51      3    2   1  15  12
   52      3    2   1  15  17
   53      3    3   1  15  17
   54      3    3   1  15  16
   55      3    3   1  15  12
   56      3    4   1  15  12
   57      3    4   1  15  16
   58      3    4   1  15  17
   59      3    5   9  12  15
   60      3    5   9  12  13
   61      3    5   9  12  14
   62      3    6   5   9  12
   63      3    6   5   9  11
   64      3    6   5   9  10
   65      3    7   5   9  12
   66      3    7   5   9  11
   67      3    7   5   9  10
   68      3    8   5   9  12
   69      3    8   5   9  11
   70      3    8   5   9  10
   71      3    9  12  15  17
   72      3    9  12  15  16
   73      3   10   9  12  15
   74      3   10   9  12  14
   75      3   10   9  12  13
   76      3   11   9  12  15
   77      3   11   9  12  14
   78      3   11   9  12  13
   79      3   13  12  15  17
   80      3   13  12  15  16
   81      3   14  12  15  17
   82      3   14  12  15  16

          INDEP./SYM. INTERNAL COORDINATES
          --------------------------------
 CRD  1=  -0.1408 (  9) -0.1874 ( 12)  0.1247 ( 17)  0.1674 ( 18) -0.4835 ( 19)
           0.1325 ( 27) -0.2739 ( 28)  0.1341 ( 35)  0.1735 ( 36) -0.5075 ( 37)
           0.1370 ( 41)  0.1556 ( 42)  0.1098 ( 44)  0.2042 ( 45) -0.1043 ( 49)
           0.1533 ( 59)
 CRD  2=   0.1380 (  9)  0.1505 ( 17) -0.2527 ( 19) -0.1086 ( 22) -0.2363 ( 26)
          -0.1499 ( 27)  0.6462 ( 28) -0.1264 ( 29)  0.1303 ( 32)  0.1893 ( 35)
          -0.1454 ( 37)  0.1151 ( 38) -0.2026 ( 39) -0.2092 ( 40)  0.1464 ( 42)
           0.1727 ( 49)  0.1400 ( 71)  0.1095 ( 72)
 CRD  3=  -0.1343 ( 17)  0.4100 ( 19)  0.1291 ( 22) -0.1105 ( 27)  0.1290 ( 28)
           0.1302 ( 35)  0.1822 ( 36) -0.5320 ( 37) -0.1812 ( 39) -0.2134 ( 41)
          -0.1031 ( 43)  0.2945 ( 44) -0.1156 ( 48)  0.1116 ( 51)  0.1200 ( 56)
          -0.1694 ( 59) -0.1235 ( 65) -0.1057 ( 68) -0.1370 ( 73) -0.1618 ( 76)
 CRD  4=  -0.2528 (  2)  0.2683 (  7)  0.1347 (  9)  0.2047 ( 18) -0.2308 ( 19)
          -0.2627 ( 24) -0.1677 ( 27)  0.1282 ( 28)  0.2411 ( 34) -0.1831 ( 35)
           0.1668 ( 36)  0.1610 ( 41)  0.1171 ( 44) -0.2096 ( 45) -0.1798 ( 47)
          -0.1523 ( 48) -0.2648 ( 49) -0.2354 ( 59) -0.1651 ( 60) -0.1474 ( 61)
          -0.1359 ( 71) -0.1519 ( 72) -0.1279 ( 73) -0.1239 ( 76)
 CRD  5=  -0.3576 (  2) -0.2944 (  7) -0.3421 (  9) -0.1054 ( 10) -0.4755 ( 12)
          -0.1428 ( 13)  0.1556 ( 21) -0.1481 ( 22) -0.2136 ( 25) -0.1589 ( 29)
           0.1586 ( 30) -0.2387 ( 32)  0.1648 ( 34)  0.1120 ( 49) -0.1375 ( 59)
          -0.1007 ( 60)  0.1230 ( 62)
 CRD  6=   0.1349 (  7) -0.3326 (  9) -0.2520 ( 12) -0.1982 ( 17)  0.1991 ( 18)
           0.1018 ( 19)  0.2586 ( 22) -0.1327 ( 25) -0.1502 ( 26)  0.1536 ( 27)
           0.1333 ( 28) -0.1875 ( 29)  0.3439 ( 32) -0.1310 ( 33) -0.2099 ( 40)
           0.1277 ( 41) -0.2732 ( 42) -0.1131 ( 47) -0.1174 ( 48) -0.1500 ( 49)
          -0.1330 ( 51) -0.1587 ( 55)  0.1478 ( 59)  0.1079 ( 60)  0.1192 ( 61)
 CRD  7=   0.3775 (  2) -0.3505 (  7) -0.2577 (  9)  0.1997 ( 12)  0.1755 ( 18)
          -0.1333 ( 19) -0.1547 ( 21) -0.1553 ( 23)  0.3505 ( 25) -0.1721 ( 27)
          -0.3230 ( 29)  0.1860 ( 30)  0.1037 ( 31) -0.1342 ( 32)  0.1664 ( 34)
          -0.1265 ( 36) -0.1366 ( 61)
 CRD  8=  -0.2513 (  2) -0.4430 (  7)  0.2199 (  9) -0.1241 ( 17)  0.2769 ( 22)
           0.2000 ( 23) -0.3975 ( 24) -0.1994 ( 26) -0.1788 ( 29)  0.1953 ( 31)
           0.1214 ( 33) -0.2527 ( 34)  0.1382 ( 39)  0.1117 ( 56)
 CRD  9=   0.3058 (  2)  0.1127 (  3)  0.2114 (  9) -0.3289 ( 12)  0.1420 ( 17)
          -0.1189 ( 20) -0.1964 ( 21)  0.3924 ( 22) -0.1860 ( 24)  0.1702 ( 29)
          -0.1526 ( 31) -0.3210 ( 32)  0.1857 ( 34)  0.1176 ( 35)  0.1305 ( 39)
          -0.1071 ( 40) -0.1926 ( 41) -0.1032 ( 44)  0.1255 ( 56)  0.1455 ( 62)
           0.1183 ( 65)  0.1099 ( 72)
 CRD 10=  -0.1675 (  2) -0.1108 (  4)  0.1796 (  7) -0.3525 (  9)  0.2692 ( 12)
          -0.1414 ( 18)  0.1196 ( 20)  0.1238 ( 22)  0.1221 ( 23) -0.3577 ( 24)
           0.1818 ( 27) -0.1001 ( 31)  0.1351 ( 34) -0.2327 ( 36) -0.2090 ( 40)
           0.1837 ( 42)  0.1196 ( 44)  0.1902 ( 45)  0.1036 ( 55)  0.1285 ( 56)
           0.1286 ( 71)  0.1630 ( 75) -0.1236 ( 77)  0.1526 ( 79) -0.1135 ( 82)
 CRD 11=   0.1118 (  1) -0.2097 ( 12)  0.1892 ( 17)  0.1661 ( 20) -0.2190 ( 22)
          -0.1089 ( 23) -0.1760 ( 24)  0.4354 ( 25)  0.1003 ( 27) -0.1133 ( 30)
           0.1227 ( 31)  0.2800 ( 32) -0.2844 ( 34) -0.1395 ( 35)  0.1051 ( 36)
          -0.2703 ( 41)  0.1548 ( 44) -0.2168 ( 45)  0.1338 ( 55) -0.1035 ( 59)
          -0.1549 ( 73) -0.1596 ( 76)
 CRD 12=   0.1309 (  5) -0.1400 (  8)  0.1581 (  9)  0.1047 ( 13)  0.1117 ( 17)
          -0.1460 ( 18)  0.1503 ( 24) -0.1506 ( 26) -0.1310 ( 28) -0.4616 ( 29)
           0.1396 ( 30)  0.1476 ( 32) -0.2338 ( 33)  0.3744 ( 34) -0.1547 ( 35)
           0.1280 ( 36)  0.2742 ( 39) -0.1244 ( 41)  0.1730 ( 42)  0.1477 ( 44)
           0.1072 ( 51)  0.1005 ( 62)  0.1301 ( 68) -0.1007 ( 71) -0.1113 ( 72)
 CRD 13=  -0.1349 (  3) -0.1409 (  6)  0.1502 ( 13)  0.1195 ( 14) -0.2201 ( 17)
           0.1525 ( 19)  0.1428 ( 20) -0.3163 ( 22) -0.1154 ( 23)  0.1950 ( 25)
          -0.2849 ( 26)  0.1436 ( 27)  0.1496 ( 29) -0.1121 ( 31) -0.3030 ( 32)
           0.1239 ( 33) -0.1435 ( 37)  0.2165 ( 39) -0.2250 ( 40)  0.1090 ( 41)
          -0.1671 ( 42)  0.1058 ( 44) -0.1065 ( 49)  0.1042 ( 59)  0.1402 ( 60)
           0.1261 ( 62)  0.1369 ( 65)  0.1241 ( 68)
 CRD 14=   0.1158 (  1) -0.1406 (  2)  0.1207 (  7)  0.1214 (  9)  0.1765 ( 10)
          -0.1359 ( 12) -0.1847 ( 15) -0.1110 ( 16) -0.1128 ( 17)  0.1868 ( 19)
           0.2074 ( 20) -0.1434 ( 22) -0.2717 ( 24)  0.2749 ( 25)  0.1400 ( 26)
          -0.1431 ( 28) -0.2143 ( 29) -0.1645 ( 33)  0.2640 ( 34)  0.2573 ( 35)
           0.1804 ( 40) -0.1608 ( 42) -0.2552 ( 44)  0.1087 ( 46)  0.1307 ( 73)
 CRD 15=   0.1109 (  4) -0.1041 (  5)  0.1131 (  6)  0.1237 (  9) -0.1412 ( 10)
           0.3983 ( 11)  0.2519 ( 14)  0.2246 ( 15) -0.1577 ( 16) -0.1241 ( 17)
           0.1628 ( 18)  0.1143 ( 24)  0.1711 ( 32)  0.2116 ( 35) -0.2378 ( 36)
           0.1322 ( 39)  0.1945 ( 45) -0.1687 ( 47) -0.1847 ( 48) -0.1446 ( 59)
          -0.1216 ( 60) -0.1827 ( 61)  0.1559 ( 62)  0.1313 ( 65)  0.1275 ( 68)
           0.1478 ( 71)  0.1643 ( 72) -0.1115 ( 77)
 CRD 16=   0.1396 ( 10) -0.2135 ( 13)  0.4707 ( 14) -0.1880 ( 15)  0.4510 ( 16)
           0.1131 ( 22)  0.1294 ( 27)  0.1594 ( 41) -0.1337 ( 42)  0.1506 ( 44)
          -0.1505 ( 45)  0.1429 ( 48)  0.1832 ( 49) -0.1252 ( 51) -0.1228 ( 55)
          -0.1481 ( 56) -0.1074 ( 59)  0.1036 ( 71)  0.1539 ( 72) -0.1363 ( 73)
          -0.1852 ( 76)  0.1137 ( 82)
 CRD 17=   0.1079 (  4)  0.1227 (  5)  0.4230 ( 10) -0.2840 ( 11) -0.3689 ( 13)
           0.3427 ( 15) -0.2044 ( 16)  0.1630 ( 18)  0.1564 ( 27) -0.1007 ( 45)
          -0.1073 ( 47) -0.1344 ( 48)  0.1070 ( 51)  0.1136 ( 55)  0.1355 ( 56)
           0.1275 ( 60)  0.1731 ( 61) -0.1642 ( 62) -0.1329 ( 65) -0.1354 ( 68)
           0.1112 ( 71)  0.1487 ( 72) -0.1380 ( 76)
 CRD 18=  -0.3665 (  1) -0.1271 (  2) -0.3878 (  3) -0.3859 (  4)  0.3295 (  5)
           0.3243 (  6)  0.1076 (  7)  0.3116 (  8) -0.1443 ( 20) -0.1472 ( 21)
           0.1336 ( 22) -0.1514 ( 23)  0.1369 ( 24)  0.1460 ( 25) -0.1239 ( 29)
           0.1234 ( 30)  0.1309 ( 31) -0.1126 ( 32)  0.1214 ( 33) -0.1161 ( 34)
 CRD 19=   0.3111 (  1)  0.1081 (  2)  0.3287 (  3)  0.3258 (  4)  0.3869 (  5)
           0.3844 (  6)  0.1275 (  7)  0.3686 (  8)  0.1223 ( 20)  0.1240 ( 21)
          -0.1130 ( 22)  0.1280 ( 23) -0.1161 ( 24) -0.1230 ( 25) -0.1456 ( 29)
           0.1446 ( 30)  0.1548 ( 31) -0.1323 ( 32)  0.1434 ( 33) -0.1378 ( 34)
 CRD 20=   0.1091 ( 10) -0.1478 ( 11) -0.1076 ( 15)  0.1596 ( 16)  0.1696 ( 17)
          -0.1662 ( 18) -0.1670 ( 26)  0.1660 ( 27)  0.1817 ( 35) -0.1515 ( 36)
           0.1225 ( 39) -0.1200 ( 40) -0.1261 ( 41)  0.1222 ( 42) -0.1790 ( 44)
           0.1468 ( 45) -0.1145 ( 50) -0.1161 ( 52) -0.1138 ( 53) -0.1123 ( 54)
          -0.1166 ( 57) -0.1181 ( 58) -0.1138 ( 63) -0.1115 ( 64) -0.1144 ( 66)
          -0.1122 ( 67) -0.1084 ( 69) -0.1061 ( 70) -0.1235 ( 71) -0.1235 ( 72)
          -0.1248 ( 73) -0.2001 ( 74) -0.2154 ( 75) -0.1259 ( 76) -0.2011 ( 77)
          -0.2165 ( 78) -0.2195 ( 79) -0.2195 ( 80) -0.2083 ( 81) -0.2083 ( 82)
 CRD 21=  -0.6298 (  1)  0.2694 (  3)  0.3128 (  4)  0.1181 (  8)  0.1512 ( 15)
           0.1501 ( 16)  0.3222 ( 20) -0.1693 ( 21) -0.1439 ( 23)  0.1010 ( 25)
           0.1847 ( 50)  0.1699 ( 51)  0.1593 ( 52) -0.1746 ( 53) -0.1492 ( 54)
          -0.1640 ( 55)
 CRD 22=  -0.1253 (  1)  0.2861 (  5)  0.3025 (  6) -0.6300 (  8)  0.1287 ( 10)
           0.1476 ( 11)  0.1011 ( 29) -0.1558 ( 30) -0.1585 ( 31)  0.3241 ( 33)
          -0.1692 ( 65) -0.1846 ( 66) -0.1616 ( 67)  0.1670 ( 68)  0.1516 ( 69)
           0.1746 ( 70)
 CRD 23=   0.2609 (  3) -0.2480 (  4) -0.4813 (  5)  0.4757 (  6) -0.1251 ( 14)
           0.1310 ( 21) -0.1393 ( 23)  0.2598 ( 30) -0.2498 ( 31)  0.1058 ( 56)
           0.1129 ( 57)  0.1107 ( 58) -0.1977 ( 62) -0.1983 ( 63) -0.1994 ( 64)
 CRD 24=   0.4871 (  3) -0.4739 (  4)  0.2545 (  5) -0.2712 (  6)  0.2557 ( 21)
          -0.2620 ( 23) -0.1397 ( 30)  0.1440 ( 31)  0.1992 ( 56)  0.1943 ( 57)
           0.1894 ( 58)  0.1066 ( 62)
 CRD 25=   0.1340 (  1) -0.1535 (  3) -0.2208 ( 10) -0.1912 ( 13) -0.3045 ( 14)
           0.4903 ( 15)  0.5331 ( 16) -0.1041 ( 43)  0.2008 ( 46)  0.1462 ( 54)
          -0.1267 ( 80)  0.1557 ( 81)
 CRD 26=   0.1395 (  6) -0.1172 (  8) -0.3941 ( 10) -0.5157 ( 11)  0.2993 ( 13)
           0.4368 ( 14)  0.1306 ( 15) -0.1799 ( 38)  0.1445 ( 43)  0.1389 ( 69)
           0.1663 ( 74) -0.1374 ( 78)
 CRD 27=   0.1001 (  5) -0.4062 ( 10) -0.2652 ( 11) -0.4352 ( 13) -0.2935 ( 14)
          -0.3585 ( 15) -0.2119 ( 16) -0.1488 ( 38) -0.1573 ( 43) -0.1202 ( 46)
           0.1216 ( 52) -0.1310 ( 67)  0.1214 ( 75) -0.1307 ( 77) -0.1126 ( 79)
           0.1286 ( 82)
 CRD 28=  -0.4226 ( 13)  0.2235 ( 14) -0.1106 ( 18) -0.1114 ( 27) -0.1019 ( 39)
          -0.1145 ( 41)  0.1008 ( 42) -0.1311 ( 47) -0.1778 ( 50) -0.1092 ( 51)
          -0.1808 ( 52) -0.1840 ( 53) -0.1811 ( 54) -0.1124 ( 55) -0.1471 ( 57)
          -0.1501 ( 58)  0.1383 ( 60)  0.1477 ( 63)  0.1463 ( 64)  0.1135 ( 65)
           0.1696 ( 66)  0.1682 ( 67)  0.1224 ( 68)  0.1785 ( 69)  0.1771 ( 70)
           0.1201 ( 74)  0.1759 ( 75)  0.1374 ( 77)  0.1931 ( 78) -0.1564 ( 79)
          -0.1752 ( 80) -0.1044 ( 81) -0.1231 ( 82)
 CRD 29=   0.2982 ( 10) -0.2880 ( 11) -0.2401 ( 15)  0.2408 ( 16)  0.1006 ( 45)
           0.1623 ( 50)  0.1052 ( 51)  0.1402 ( 52)  0.1456 ( 53)  0.1678 ( 54)
           0.1106 ( 55)  0.1229 ( 56)  0.1800 ( 57)  0.1579 ( 58) -0.1019 ( 61)
           0.1685 ( 62)  0.2417 ( 63)  0.2168 ( 64)  0.1502 ( 65)  0.2233 ( 66)
           0.1984 ( 67)  0.1529 ( 68)  0.2261 ( 69)  0.2012 ( 70) -0.1270 ( 74)
          -0.1116 ( 77)
 CRD 30=  -0.1892 ( 10)  0.1827 ( 11) -0.1930 ( 13)  0.1838 ( 14) -0.2110 ( 15)
           0.2057 ( 16)  0.1067 ( 43) -0.1776 ( 48) -0.1001 ( 49)  0.1685 ( 50)
           0.1372 ( 51)  0.1544 ( 52)  0.1521 ( 53)  0.1662 ( 54)  0.1349 ( 55)
           0.1756 ( 56)  0.2069 ( 57)  0.1928 ( 58)  0.1008 ( 59)  0.1526 ( 61)
          -0.1212 ( 62) -0.1338 ( 63) -0.1255 ( 64) -0.1026 ( 66) -0.1043 ( 71)
          -0.1590 ( 72)  0.1406 ( 74)  0.1523 ( 76)  0.2040 ( 77)  0.1314 ( 78)
          -0.1468 ( 80) -0.1818 ( 81) -0.2365 ( 82)
 CRD 31=  -0.1648 (  5) -0.2100 (  6)  0.1343 (  7) -0.3025 (  8)  0.1301 (  9)
           0.1332 ( 12)  0.1305 ( 13) -0.1135 ( 14)  0.1929 ( 26)  0.2049 ( 27)
          -0.2407 ( 29)  0.2828 ( 30)  0.2416 ( 31) -0.2086 ( 32)  0.1680 ( 33)
          -0.1998 ( 34) -0.1866 ( 39) -0.1638 ( 40) -0.1078 ( 45) -0.1198 ( 47)
           0.1426 ( 67)  0.1111 ( 73)  0.1857 ( 74)  0.1395 ( 75) -0.1341 ( 76)
          -0.1056 ( 78) -0.1671 ( 79)
 CRD 32=  -0.3130 (  1)  0.1696 (  2) -0.2040 (  3) -0.1934 (  4)  0.1277 ( 12)
           0.1812 ( 17)  0.2002 ( 18)  0.1824 ( 20)  0.2800 ( 21) -0.2186 ( 22)
           0.2685 ( 23) -0.2135 ( 24) -0.2546 ( 25) -0.1056 ( 36) -0.1884 ( 41)
          -0.1882 ( 42)  0.1122 ( 45) -0.1418 ( 52) -0.1016 ( 58)  0.1013 ( 60)
           0.1368 ( 72)  0.1411 ( 78) -0.1009 ( 79)  0.1277 ( 80) -0.1490 ( 81)
 CRD 33=   0.1738 (  2) -0.1638 (  4)  0.1961 (  5) -0.2418 (  7) -0.1803 (  9)
          -0.1741 ( 10)  0.1763 ( 12)  0.1813 ( 15)  0.1405 ( 20)  0.1031 ( 29)
          -0.1365 ( 31)  0.1032 ( 32) -0.1682 ( 33)  0.1307 ( 34)  0.1970 ( 35)
           0.1918 ( 36)  0.1121 ( 38) -0.2046 ( 44) -0.1865 ( 45) -0.1278 ( 46)
           0.1201 ( 48)  0.2015 ( 52)  0.1426 ( 53)  0.1312 ( 58) -0.1017 ( 60)
           0.1060 ( 61)  0.1305 ( 64)  0.1976 ( 67)  0.1433 ( 70) -0.1991 ( 75)
          -0.1390 ( 78) -0.1790 ( 79) -0.1102 ( 80)
 CRD 34=  -0.2431 (  2)  0.2451 (  4)  0.2097 (  5) -0.3450 (  7)  0.1273 (  9)
           0.1253 ( 11)  0.1846 ( 13) -0.2607 ( 14) -0.1771 ( 15)  0.2342 ( 16)
           0.1079 ( 18) -0.1161 ( 20) -0.1762 ( 23)  0.1105 ( 29) -0.1555 ( 31)
           0.1085 ( 32) -0.1526 ( 33) -0.1271 ( 48) -0.1666 ( 50) -0.1759 ( 52)
          -0.1254 ( 53) -0.1161 ( 54)  0.1186 ( 56)  0.1206 ( 61)  0.1053 ( 67)
           0.1642 ( 72)  0.1366 ( 74) -0.1186 ( 76)
 CRD 35=   0.2723 (  2) -0.2399 (  3) -0.1881 (  6)  0.1783 (  7)  0.1832 ( 11)
          -0.1401 ( 12) -0.1260 ( 14)  0.1885 ( 16) -0.1312 ( 17)  0.1830 ( 20)
           0.1072 ( 21) -0.1014 ( 26)  0.1510 ( 33) -0.1124 ( 38)  0.1422 ( 40)
           0.1602 ( 42)  0.1840 ( 43) -0.1445 ( 50) -0.2757 ( 54) -0.1094 ( 57)
           0.1116 ( 63)  0.1268 ( 66)  0.2507 ( 69) -0.1347 ( 75) -0.1431 ( 78)
           0.1652 ( 79)  0.1436 ( 80)
 CRD 36=  -0.2582 (  2)  0.2173 (  3) -0.2744 (  6)  0.1675 (  7) -0.1970 (  9)
          -0.1624 ( 10)  0.2316 ( 11)  0.2577 ( 12) -0.1118 ( 16)  0.1076 ( 17)
          -0.1645 ( 20) -0.1088 ( 26)  0.1361 ( 30) -0.1415 ( 31)  0.1323 ( 33)
           0.1739 ( 40) -0.1575 ( 42)  0.2159 ( 54) -0.1044 ( 58) -0.1666 ( 62)
           0.1664 ( 66)  0.2864 ( 69)  0.1507 ( 70) -0.1049 ( 73) -0.1376 ( 75)
          -0.1004 ( 78)
 CRD 37=   0.1415 (  1) -0.1726 (  2) -0.2208 (  5)  0.2370 (  8) -0.2283 (  9)
           0.2010 ( 10)  0.1988 ( 13)  0.1537 ( 15) -0.1087 ( 21) -0.1878 ( 30)
           0.1612 ( 33)  0.1279 ( 35) -0.1764 ( 38)  0.1151 ( 39) -0.1613 ( 46)
          -0.1296 ( 47)  0.1696 ( 52)  0.1078 ( 62)  0.1282 ( 63) -0.1452 ( 65)
          -0.1248 ( 66) -0.3062 ( 67)  0.1078 ( 68)  0.1282 ( 69)  0.1817 ( 74)
           0.1957 ( 75) -0.2549 ( 79) -0.1218 ( 81)
 CRD 38=   0.2290 (  1) -0.2728 (  4)  0.2059 (  5)  0.2172 (  9) -0.2413 ( 12)
           0.1339 ( 15)  0.1627 ( 20) -0.2221 ( 21)  0.1322 ( 30) -0.1203 ( 35)
          -0.1556 ( 36)  0.1732 ( 44)  0.1284 ( 45) -0.1071 ( 48)  0.1854 ( 50)
           0.1436 ( 51)  0.2635 ( 52) -0.1218 ( 55) -0.1873 ( 56) -0.1456 ( 57)
          -0.1672 ( 62) -0.1112 ( 63) -0.1069 ( 64)  0.1201 ( 66)  0.1245 ( 67)
           0.1087 ( 75) -0.1127 ( 77) -0.1877 ( 81)
 CRD 39=  -0.1981 (  1)  0.2621 (  2)  0.1738 (  3) -0.2870 (  7)  0.1754 (  8)
           0.1420 (  9)  0.1126 ( 11) -0.1204 ( 16) -0.1491 ( 17) -0.1147 ( 18)
          -0.1184 ( 22)  0.1984 ( 23)  0.1265 ( 26)  0.1466 ( 27) -0.1002 ( 30)
          -0.1546 ( 38)  0.1160 ( 41)  0.1461 ( 46)  0.1479 ( 53)  0.1797 ( 54)
           0.1246 ( 55) -0.1308 ( 56) -0.1075 ( 58)  0.1120 ( 69) -0.1762 ( 72)
           0.1501 ( 74)  0.1110 ( 75) -0.1937 ( 76) -0.1198 ( 77) -0.1589 ( 78)
           0.1252 ( 79) -0.1241 ( 80) -0.2212 ( 82)
 CRD 40=  -0.1854 (  3)  0.1235 (  4) -0.2365 (  6)  0.1825 (  8) -0.1225 ( 12)
           0.2202 ( 14)  0.1049 ( 21) -0.1293 ( 23)  0.1432 ( 26) -0.1983 ( 31)
           0.1427 ( 32)  0.1219 ( 33)  0.1003 ( 37) -0.1140 ( 39) -0.2161 ( 43)
           0.1946 ( 48) -0.1012 ( 53)  0.1581 ( 56)  0.1867 ( 57)  0.1373 ( 58)
          -0.2174 ( 61) -0.1666 ( 62) -0.2089 ( 63) -0.1096 ( 64) -0.1193 ( 66)
           0.1636 ( 68)  0.1214 ( 69)  0.2206 ( 70) -0.1382 ( 74)  0.1104 ( 75)
          -0.2041 ( 77) -0.1076 ( 80)  0.1720 ( 81)  0.1068 ( 82)
 CRD 41=  -0.1973 (  1)  0.1565 (  5) -0.1428 (  8) -0.1976 (  9)  0.1047 ( 10)
          -0.2243 ( 12)  0.1846 ( 13) -0.1245 ( 18) -0.1349 ( 20)  0.1351 ( 25)
          -0.1479 ( 27)  0.1349 ( 30) -0.1285 ( 34)  0.1132 ( 41)  0.1218 ( 42)
          -0.1437 ( 43) -0.1022 ( 46) -0.1091 ( 47) -0.2480 ( 50) -0.1404 ( 51)
           0.2703 ( 53)  0.1432 ( 55)  0.1391 ( 58) -0.1159 ( 59) -0.2177 ( 64)
           0.1514 ( 65)  0.1909 ( 66) -0.1816 ( 70)  0.1293 ( 75)  0.1497 ( 78)
          -0.1309 ( 79) -0.1331 ( 80)
 CRD 42=   0.1053 (  1) -0.1341 (  3)  0.1005 (  6) -0.1453 (  8) -0.2005 (  9)
           0.1222 ( 10)  0.1672 ( 11)  0.1348 ( 12) -0.1746 ( 16) -0.1381 ( 19)
           0.1050 ( 22) -0.1117 ( 25)  0.1706 ( 28)  0.1524 ( 29) -0.1254 ( 33)
          -0.2234 ( 38)  0.1733 ( 46)  0.2029 ( 50) -0.2065 ( 53) -0.1562 ( 55)
           0.2223 ( 57)  0.1774 ( 63) -0.1211 ( 64)  0.1010 ( 65)  0.2714 ( 66)
          -0.1460 ( 68) -0.2741 ( 70) -0.1528 ( 72) -0.1460 ( 76) -0.1338 ( 77)
          -0.1289 ( 78) -0.1521 ( 80)
 CRD 43=  -0.1527 (  4) -0.1053 (  6) -0.1097 (  9) -0.1496 ( 11)  0.1451 ( 12)
          -0.2323 ( 15) -0.1082 ( 17)  0.1012 ( 18) -0.1402 ( 19) -0.1025 ( 21)
           0.1309 ( 24) -0.1167 ( 27)  0.1461 ( 35)  0.1034 ( 39) -0.1436 ( 45)
           0.1515 ( 46) -0.2416 ( 47) -0.1051 ( 48)  0.1365 ( 50)  0.2340 ( 51)
          -0.1689 ( 53)  0.1050 ( 55) -0.2699 ( 58) -0.1795 ( 59) -0.1699 ( 63)
          -0.1348 ( 64)  0.1243 ( 65)  0.1525 ( 68)  0.2386 ( 71)  0.1770 ( 77)
           0.1195 ( 78) -0.1369 ( 80)  0.1916 ( 81)
 CRD 44=  -0.1184 (  5) -0.2163 ( 10)  0.1069 ( 11) -0.1152 ( 12)  0.1988 ( 13)
          -0.1413 ( 26) -0.1027 ( 32)  0.1169 ( 34) -0.1230 ( 36)  0.1663 ( 37)
           0.1631 ( 40) -0.1511 ( 43) -0.1557 ( 47)  0.3356 ( 60)  0.1045 ( 61)
           0.1609 ( 63)  0.2352 ( 64) -0.2473 ( 65) -0.2173 ( 68)  0.1951 ( 71)
          -0.2611 ( 73) -0.2184 ( 74) -0.1216 ( 76)  0.1522 ( 78) -0.1906 ( 80)
           0.1097 ( 81)
 CRD 45=   0.1086 (  9) -0.1164 ( 11) -0.2099 ( 14)  0.1023 ( 15) -0.1979 ( 16)
          -0.1194 ( 18)  0.1014 ( 22) -0.1232 ( 28) -0.1099 ( 36) -0.1241 ( 37)
           0.1018 ( 38)  0.1482 ( 41) -0.1002 ( 42)  0.1044 ( 43)  0.1391 ( 44)
           0.1578 ( 47)  0.3014 ( 49) -0.2102 ( 51) -0.2295 ( 55)  0.2049 ( 57)
           0.1373 ( 58) -0.2057 ( 59) -0.1036 ( 63)  0.1027 ( 68)  0.1197 ( 71)
          -0.2096 ( 73)  0.2334 ( 77)  0.1205 ( 78) -0.1306 ( 80) -0.1696 ( 81)
          -0.2763 ( 82)

 THE DETERMINANT OF THE G MATRIX IS 10**(   -12)


                     --------------------
                     INTERNAL COORDINATES
                     --------------------

                 - - ATOMS - -         COORDINATE      COORDINATE
 NO.   TYPE    I  J  K  L  M  N        (BOHR,RAD)       (ANG,DEG)
 ----------------------------------------------------------------
   1 STRETCH   1  4                     2.0513705       1.0855386
   2 STRETCH   1 15                     2.8908009       1.5297461
   3 STRETCH   1  2                     2.0526757       1.0862293
   4 STRETCH   1  3                     2.0505521       1.0851055
   5 STRETCH   5  8                     2.0488552       1.0842075
   6 STRETCH   5  7                     2.0527061       1.0862454
   7 STRETCH   5  9                     2.8924885       1.5306391
   8 STRETCH   5  6                     2.0520519       1.0858992
   9 STRETCH   9 12                     2.9118495       1.5408845
  10 STRETCH   9 11                     2.0539661       1.0869121
  11 STRETCH   9 10                     2.0566644       1.0883400
  12 STRETCH  12 15                     2.9001563       1.5346967
  13 STRETCH  12 14                     2.0535732       1.0867042
  14 STRETCH  12 13                     2.0582179       1.0891621
  15 STRETCH  15 16                     2.0550585       1.0874902
  16 STRETCH  15 17                     2.0553635       1.0876516
  17 BEND      1 15 17                  1.9034857     109.0616963
  18 BEND      1 15 16                  1.8949249     108.5712011
  19 BEND      1 15 12                  2.0219940     115.8517205
  20 BEND      2  1  3                  1.8823936     107.8532110
  21 BEND      2  1  4                  1.8798151     107.7054736
  22 BEND      2  1 15                  1.9430836     111.3304915
  23 BEND      3  1  4                  1.8737130     107.3558468
  24 BEND      3  1 15                  1.9521199     111.8482320
  25 BEND      4  1 15                  1.9296062     110.5582927
  26 BEND      5  9 10                  1.9139529     109.6614234
  27 BEND      5  9 11                  1.8807263     107.7576789
  28 BEND      5  9 12                  2.0053894     114.9003489
  29 BEND      6  5  9                  1.9346537     110.8474919
  30 BEND      6  5  7                  1.8775498     107.5756790
  31 BEND      6  5  8                  1.8787272     107.6431373
  32 BEND      7  5  9                  1.9318385     110.6861930
  33 BEND      7  5  8                  1.8763600     107.5075060
  34 BEND      8  5  9                  1.9613865     112.3791683
  35 BEND      9 12 13                  1.9101945     109.4460812
  36 BEND      9 12 14                  1.8958701     108.6253539
  37 BEND      9 12 15                  2.0229919     115.9088978
  38 BEND     10  9 11                  1.8470693     105.8292749
  39 BEND     10  9 12                  1.9122996     109.5666966
  40 BEND     11  9 12                  1.8974770     108.7174245
  41 BEND     12 15 17                  1.9001995     108.8734110
  42 BEND     12 15 16                  1.8853542     108.0228371
  43 BEND     13 12 14                  1.8482120     105.8947501
  44 BEND     13 12 15                  1.9088971     109.3717498
  45 BEND     14 12 15                  1.8693661     107.1067903
  46 BEND     16 15 17                  1.8503069     106.0147779
  47 TORSION   1 15 12 13              -1.0639415     -60.9593565
  48 TORSION   1 15 12 14              -3.0593385    -175.2871854
  49 TORSION   1 15 12  9               1.1050208      63.3130264
  50 TORSION   2  1 15 16              -1.1686511     -66.9587735
  51 TORSION   2  1 15 12               0.9554242      54.7417732
  52 TORSION   2  1 15 17               3.1058632     177.9528532
  53 TORSION   3  1 15 17               0.9985285      57.2114714
  54 TORSION   3  1 15 16               3.0071996     172.2998447
  55 TORSION   3  1 15 12              -1.1519105     -65.9996085
  56 TORSION   4  1 15 12               3.0442276     174.4213941
  57 TORSION   4  1 15 16               0.9201524      52.7208474
  58 TORSION   4  1 15 17              -1.0885187     -62.3675259
  59 TORSION   5  9 12 15              -1.6368963     -93.7872468
  60 TORSION   5  9 12 13               0.5313948      30.4466767
  61 TORSION   5  9 12 14               2.5416862     145.6278942
  62 TORSION   6  5  9 12              -3.1308493    -179.3844535
  63 TORSION   6  5  9 11              -1.0130312     -58.0424139
  64 TORSION   6  5  9 10               0.9896398      56.7021832
  65 TORSION   7  5  9 12              -1.0489044     -60.0977944
  66 TORSION   7  5  9 11               1.0689137      61.2442452
  67 TORSION   7  5  9 10               3.0715847     175.9888423
  68 TORSION   8  5  9 12               1.0492191      60.1158267
  69 TORSION   8  5  9 11              -3.1161481    -178.5421337
  70 TORSION   8  5  9 10              -1.1134771     -63.7975367
  71 TORSION   9 12 15 17              -1.0471403     -59.9967176
  72 TORSION   9 12 15 16              -3.0489944    -174.6945115
  73 TORSION  10  9 12 15               0.5266754      30.1762794
  74 TORSION  10  9 12 14              -1.5779274     -90.4085796
  75 TORSION  10  9 12 13               2.6949664     154.4102028
  76 TORSION  11  9 12 15               2.5376282     145.3953885
  77 TORSION  11  9 12 14               0.4330254      24.8105295
  78 TORSION  11  9 12 13              -1.5772661     -90.3706881
  79 TORSION  13 12 15 17               3.0670828     175.7308995
  80 TORSION  13 12 15 16               1.0652286      61.0331056
  81 TORSION  14 12 15 17               1.0716858      61.4030706
  82 TORSION  14 12 15 16              -0.9301684     -53.2947233

     ------------------------------------------
     THE POINT GROUP IS C1 , NAXIS= 0, ORDER= 1
     ------------------------------------------

     DIMENSIONS OF THE SYMMETRY SUBSPACES ARE
 A   =   99

 ..... DONE SETTING UP THE RUN .....
 CPU     0: STEP CPU TIME=     0.02 TOTAL CPU TIME=        0.0 (    0.0 MIN)
 TOTAL WALL CLOCK TIME=        0.0 SECONDS, CPU UTILIZATION IS  50.00%


          -----------------------------
          STATIONARY POINT LOCATION RUN
          -----------------------------

 OBTAINING INITIAL HESSIAN, HESS=GUESS   
 DIAGONAL GUESS HESSIAN IN INTERNAL COORDS IS
     1  0.3494     2  0.3674     3  0.3489     4  0.3497     5  0.3503
     6  0.3489     7  0.3667     8  0.3491     9  0.3595    10  0.3485
    11  0.3475    12  0.3638    13  0.3486    14  0.3469    15  0.3481
    16  0.3480    17  0.2242    18  0.2242    19  0.2482    20  0.2038
    21  0.2038    22  0.2243    23  0.2039    24  0.2244    25  0.2244
    26  0.2241    27  0.2242    28  0.2477    29  0.2243    30  0.2038
    31  0.2039    32  0.2243    33  0.2039    34  0.2244    35  0.2235
    36  0.2236    37  0.2474    38  0.2036    39  0.2235    40  0.2236
    41  0.2239    42  0.2239    43  0.2036    44  0.2238    45  0.2240
    46  0.2036    47  0.2500    48  0.2500    49  0.2500    50  0.2500
    51  0.2500    52  0.2500    53  0.2500    54  0.2500    55  0.2500
    56  0.2500    57  0.2500    58  0.2500    59  0.2500    60  0.2500
    61  0.2500    62  0.2500    63  0.2500    64  0.2500    65  0.2500
    66  0.2500    67  0.2500    68  0.2500    69  0.2500    70  0.2500
    71  0.2500    72  0.2500    73  0.2500    74  0.2500    75  0.2500
    76  0.2500    77  0.2500    78  0.2500    79  0.2500    80  0.2500
    81  0.2500    82  0.2500
 TRANSFORMING HESSIAN TO SYMMETRY COORDINATES

          PARAMETERS CONTROLLING GEOMETRY SEARCH ARE
          METHOD =QA                  UPHESS =BFGS    
          NNEG   =         0          NFRZ   =         0
          NSTEP  =       200          IFOLOW =         1
          HESS   =GUESS               RESTAR =         F
          IHREP  =         0          HSSEND =         F
          NPRT   =         0          NPUN   =         0
          OPTTOL = 1.000E-06          RMIN   = 1.500E-03
          RMAX   = 1.000E-01          RLIM   = 7.000E-02
          DXMAX  = 3.000E-01          PURIFY =         F
          MOVIE  =         F          TRUPD  =         T
          TRMAX  = 5.000E-01          TRMIN  = 5.000E-02
          ITBMAT =         5          STPT   =         F
          STSTEP = 1.000E-02          PROJCT=          T

 BEGINNING GEOMETRY SEARCH POINT NSERCH=   0 ...

 COORDINATES OF ALL ATOMS ARE (ANGS)
   ATOM   CHARGE       X              Y              Z
 ------------------------------------------------------------
 C           6.0   1.6423444959   1.0090768102  -0.0194876603
 H           1.0   1.4771477600   1.3761266073   0.9894119804
 H           1.0   0.9941332539   1.5674537166  -0.6869390939
 H           1.0   2.6667065114   1.2428898647  -0.2922658057
 C           6.0  -1.8436566964   0.8057304358   0.1577690460
 H           1.0  -2.6973327819   1.1078090242  -0.4415327706
 H           1.0  -2.1984485967   0.6311505348   1.1694871716
 H           1.0  -1.1547577126   1.6421797548   0.1935003608
 C           6.0  -1.1966191094  -0.4581303916  -0.4139425685
 H           1.0  -0.9116049399  -0.2869177170  -1.4502519543
 H           1.0  -1.9550816093  -1.2362355461  -0.4397302575
 C           6.0   0.0193252267  -0.9788599456   0.3764023582
 H           1.0  -0.0982771760  -0.7278036941   1.4296897992
 H           1.0   0.0256168575  -2.0644724400   0.3281123248
 C           6.0   1.3924226239  -0.4973107497  -0.1114581849
 H           1.0   2.1549777981  -1.0109992419   0.4692902453
 H           1.0   1.5324094474  -0.8183881252  -1.1411664000


                     --------------------
                     INTERNAL COORDINATES
                     --------------------

                 - - ATOMS - -         COORDINATE      COORDINATE
 NO.   TYPE    I  J  K  L  M  N        (BOHR,RAD)       (ANG,DEG)
 ----------------------------------------------------------------
   1 STRETCH   1  4                     2.0513705       1.0855386
   2 STRETCH   1 15                     2.8908009       1.5297461
   3 STRETCH   1  2                     2.0526757       1.0862293
   4 STRETCH   1  3                     2.0505521       1.0851055
   5 STRETCH   5  8                     2.0488552       1.0842075
   6 STRETCH   5  7                     2.0527061       1.0862454
   7 STRETCH   5  9                     2.8924885       1.5306391
   8 STRETCH   5  6                     2.0520519       1.0858992
   9 STRETCH   9 12                     2.9118495       1.5408845
  10 STRETCH   9 11                     2.0539661       1.0869121
  11 STRETCH   9 10                     2.0566644       1.0883400
  12 STRETCH  12 15                     2.9001563       1.5346967
  13 STRETCH  12 14                     2.0535732       1.0867042
  14 STRETCH  12 13                     2.0582179       1.0891621
  15 STRETCH  15 16                     2.0550585       1.0874902
  16 STRETCH  15 17                     2.0553635       1.0876516
  17 BEND      1 15 17                  1.9034857     109.0616963
  18 BEND      1 15 16                  1.8949249     108.5712011
  19 BEND      1 15 12                  2.0219940     115.8517205
  20 BEND      2  1  3                  1.8823936     107.8532110
  21 BEND      2  1  4                  1.8798151     107.7054736
  22 BEND      2  1 15                  1.9430836     111.3304915
  23 BEND      3  1  4                  1.8737130     107.3558468
  24 BEND      3  1 15                  1.9521199     111.8482320
  25 BEND      4  1 15                  1.9296062     110.5582927
  26 BEND      5  9 10                  1.9139529     109.6614234
  27 BEND      5  9 11                  1.8807263     107.7576789
  28 BEND      5  9 12                  2.0053894     114.9003489
  29 BEND      6  5  9                  1.9346537     110.8474919
  30 BEND      6  5  7                  1.8775498     107.5756790
  31 BEND      6  5  8                  1.8787272     107.6431373
  32 BEND      7  5  9                  1.9318385     110.6861930
  33 BEND      7  5  8                  1.8763600     107.5075060
  34 BEND      8  5  9                  1.9613865     112.3791683
  35 BEND      9 12 13                  1.9101945     109.4460812
  36 BEND      9 12 14                  1.8958701     108.6253539
  37 BEND      9 12 15                  2.0229919     115.9088978
  38 BEND     10  9 11                  1.8470693     105.8292749
  39 BEND     10  9 12                  1.9122996     109.5666966
  40 BEND     11  9 12                  1.8974770     108.7174245
  41 BEND     12 15 17                  1.9001995     108.8734110
  42 BEND     12 15 16                  1.8853542     108.0228371
  43 BEND     13 12 14                  1.8482120     105.8947501
  44 BEND     13 12 15                  1.9088971     109.3717498
  45 BEND     14 12 15                  1.8693661     107.1067903
  46 BEND     16 15 17                  1.8503069     106.0147779
  47 TORSION   1 15 12 13              -1.0639415     -60.9593565
  48 TORSION   1 15 12 14              -3.0593385    -175.2871854
  49 TORSION   1 15 12  9               1.1050208      63.3130264
  50 TORSION   2  1 15 16              -1.1686511     -66.9587735
  51 TORSION   2  1 15 12               0.9554242      54.7417732
  52 TORSION   2  1 15 17               3.1058632     177.9528532
  53 TORSION   3  1 15 17               0.9985285      57.2114714
  54 TORSION   3  1 15 16               3.0071996     172.2998447
  55 TORSION   3  1 15 12              -1.1519105     -65.9996085
  56 TORSION   4  1 15 12               3.0442276     174.4213941
  57 TORSION   4  1 15 16               0.9201524      52.7208474
  58 TORSION   4  1 15 17              -1.0885187     -62.3675259
  59 TORSION   5  9 12 15              -1.6368963     -93.7872468
  60 TORSION   5  9 12 13               0.5313948      30.4466767
  61 TORSION   5  9 12 14               2.5416862     145.6278942
  62 TORSION   6  5  9 12              -3.1308493    -179.3844535
  63 TORSION   6  5  9 11              -1.0130312     -58.0424139
  64 TORSION   6  5  9 10               0.9896398      56.7021832
  65 TORSION   7  5  9 12              -1.0489044     -60.0977944
  66 TORSION   7  5  9 11               1.0689137      61.2442452
  67 TORSION   7  5  9 10               3.0715847     175.9888423
  68 TORSION   8  5  9 12               1.0492191      60.1158267
  69 TORSION   8  5  9 11              -3.1161481    -178.5421337
  70 TORSION   8  5  9 10              -1.1134771     -63.7975367
  71 TORSION   9 12 15 17              -1.0471403     -59.9967176
  72 TORSION   9 12 15 16              -3.0489944    -174.6945115
  73 TORSION  10  9 12 15               0.5266754      30.1762794
  74 TORSION  10  9 12 14              -1.5779274     -90.4085796
  75 TORSION  10  9 12 13               2.6949664     154.4102028
  76 TORSION  11  9 12 15               2.5376282     145.3953885
  77 TORSION  11  9 12 14               0.4330254      24.8105295
  78 TORSION  11  9 12 13              -1.5772661     -90.3706881
  79 TORSION  13 12 15 17               3.0670828     175.7308995
  80 TORSION  13 12 15 16               1.0652286      61.0331056
  81 TORSION  14 12 15 17               1.0716858      61.4030706
  82 TORSION  14 12 15 16              -0.9301684     -53.2947233

          ********************
          1 ELECTRON INTEGRALS
          ********************
 ...... END OF ONE-ELECTRON INTEGRALS ......
 CPU     0: STEP CPU TIME=     0.02 TOTAL CPU TIME=        0.0 (    0.0 MIN)
 TOTAL WALL CLOCK TIME=        0.1 SECONDS, CPU UTILIZATION IS  80.00%

          -------------
          GUESS OPTIONS
          -------------
          GUESS =HUCKEL            NORB  =       0          NORDER=       0
          MIX   =       F          PRTMO =       F          PUNMO =       F
          TOLZ  = 1.0E-08          TOLE  = 1.0E-05
          SYMDEN=       F          PURIFY=       F

 INITIAL GUESS ORBITALS GENERATED BY HUCKEL   ROUTINE.
 HUCKEL GUESS REQUIRES     88679 WORDS.

 SYMMETRIES FOR INITIAL GUESS ORBITALS FOLLOW.   BOTH SET(S).
    21 ORBITALS ARE OCCUPIED (    5 CORE ORBITALS).
     6=A        7=A        8=A        9=A       10=A       11=A       12=A   
    13=A       14=A       15=A       16=A       17=A       18=A       19=A   
    20=A       21=A       22=A       23=A       24=A       25=A       26=A   
    27=A       28=A       29=A       30=A       31=A   
 ...... END OF INITIAL ORBITAL SELECTION ......
 CPU     0: STEP CPU TIME=     0.01 TOTAL CPU TIME=        0.1 (    0.0 MIN)
 TOTAL WALL CLOCK TIME=        0.1 SECONDS, CPU UTILIZATION IS  83.33%

                    ----------------------
                    AO INTEGRAL TECHNOLOGY
                    ----------------------
     S,P,L SHELL ROTATED AXIS INTEGRALS, REPROGRAMMED BY
        KAZUYA ISHIMURA (IMS) AND JOSE SIERRA (SYNSTAR).
     S,P,D,L SHELL ROTATED AXIS INTEGRALS PROGRAMMED BY
        KAZUYA ISHIMURA (INSTITUTE FOR MOLECULAR SCIENCE).
     S,P,D,F,G SHELL TO TOTAL QUARTET ANGULAR MOMENTUM SUM 5,
        ERIC PROGRAM BY GRAHAM FLETCHER (ELORET AND NASA ADVANCED
        SUPERCOMPUTING DIVISION, AMES RESEARCH CENTER).
     S,P,D,F,G,L SHELL GENERAL RYS QUADRATURE PROGRAMMED BY
        MICHEL DUPUIS (PACIFIC NORTHWEST NATIONAL LABORATORY).

          --------------------
          2 ELECTRON INTEGRALS
          --------------------

 THE -PK- OPTION IS OFF, THE INTEGRALS ARE NOT IN SUPERMATRIX FORM.
 STORING   15000 INTEGRALS/RECORD ON DISK, USING 12 BYTES/INTEGRAL.
 TWO ELECTRON INTEGRAL EVALUATION REQUIRES   91386 WORDS OF MEMORY.
 SCHWARZ INEQUALITY OVERHEAD:      4941 INTEGRALS, T=        0.00
 II,JST,KST,LST =  1  1  1  1 NREC =         1 INTLOC =    1
 II,JST,KST,LST =  2  1  1  1 NREC =         1 INTLOC =    1
 II,JST,KST,LST =  3  1  1  1 NREC =         1 INTLOC =    1
 II,JST,KST,LST =  4  1  1  1 NREC =         1 INTLOC =    1
 II,JST,KST,LST =  5  1  1  1 NREC =         1 INTLOC =    1
 II,JST,KST,LST =  6  1  1  1 NREC =         1 INTLOC =    2
 II,JST,KST,LST =  7  1  1  1 NREC =         1 INTLOC =  453
 II,JST,KST,LST =  8  1  1  1 NREC =         1 INTLOC =  777
 II,JST,KST,LST =  9  1  1  1 NREC =         1 INTLOC =  777
 II,JST,KST,LST = 10  1  1  1 NREC =         1 INTLOC = 1383
 II,JST,KST,LST = 11  1  1  1 NREC =         1 INTLOC = 1915
 II,JST,KST,LST = 12  1  1  1 NREC =         1 INTLOC = 2199
 II,JST,KST,LST = 13  1  1  1 NREC =         1 INTLOC = 4214
 II,JST,KST,LST = 14  1  1  1 NREC =         1 INTLOC = 9798
 II,JST,KST,LST = 15  1  1  1 NREC =         2 INTLOC = 2003
 II,JST,KST,LST = 16  1  1  1 NREC =         2 INTLOC = 8500
 II,JST,KST,LST = 17  1  1  1 NREC =         2 INTLOC = 9932
 II,JST,KST,LST = 18  1  1  1 NREC =         2 INTLOC =13796
 II,JST,KST,LST = 19  1  1  1 NREC =         3 INTLOC = 1265
 II,JST,KST,LST = 20  1  1  1 NREC =         3 INTLOC = 3230
 II,JST,KST,LST = 21  1  1  1 NREC =         3 INTLOC = 8954
 II,JST,KST,LST = 22  1  1  1 NREC =         3 INTLOC =11248
 II,JST,KST,LST = 23  1  1  1 NREC =         4 INTLOC = 6096
 II,JST,KST,LST = 24  1  1  1 NREC =         5 INTLOC = 3866
 II,JST,KST,LST = 25  1  1  1 NREC =        10 INTLOC =12739
 II,JST,KST,LST = 26  1  1  1 NREC =        10 INTLOC =12739
 II,JST,KST,LST = 27  1  1  1 NREC =        12 INTLOC = 7942
 II,JST,KST,LST = 28  1  1  1 NREC =        12 INTLOC = 7942
 II,JST,KST,LST = 29  1  1  1 NREC =        13 INTLOC = 3753
 II,JST,KST,LST = 30  1  1  1 NREC =        13 INTLOC = 8323
 II,JST,KST,LST = 31  1  1  1 NREC =        17 INTLOC = 1174
 II,JST,KST,LST = 32  1  1  1 NREC =        24 INTLOC = 6911
 II,JST,KST,LST = 33  1  1  1 NREC =        28 INTLOC =13111
 II,JST,KST,LST = 34  1  1  1 NREC =        31 INTLOC = 7940
 II,JST,KST,LST = 35  1  1  1 NREC =        35 INTLOC = 2378
 II,JST,KST,LST = 36  1  1  1 NREC =        36 INTLOC = 7874
 II,JST,KST,LST = 37  1  1  1 NREC =        37 INTLOC = 2698
 II,JST,KST,LST = 38  1  1  1 NREC =        38 INTLOC = 3086
 II,JST,KST,LST = 39  1  1  1 NREC =        45 INTLOC = 5596
 II,JST,KST,LST = 40  1  1  1 NREC =        57 INTLOC =11869
 II,JST,KST,LST = 41  1  1  1 NREC =        67 INTLOC =11728
 II,JST,KST,LST = 42  1  1  1 NREC =        72 INTLOC = 1268
 II,JST,KST,LST = 43  1  1  1 NREC =        77 INTLOC = 6125
 II,JST,KST,LST = 44  1  1  1 NREC =        80 INTLOC = 5256
 SCHWARZ INEQUALITY TEST SKIPPED       78365 INTEGRAL BLOCKS.
 TOTAL NUMBER OF NONZERO TWO-ELECTRON INTEGRALS =            10561478
        708 INTEGRAL RECORDS WERE STORED ON DISK FILE  8.
  ...... END OF TWO-ELECTRON INTEGRALS .....
 CPU     0: STEP CPU TIME=     0.12 TOTAL CPU TIME=        0.2 (    0.0 MIN)
 TOTAL WALL CLOCK TIME=        0.2 SECONDS, CPU UTILIZATION IS  89.47%

          --------------------------
                 RHF SCF CALCULATION
          --------------------------

     NUCLEAR ENERGY =       190.2864835991
     MAXIT =  200     NPUNCH=    2
     EXTRAP=T  DAMP=F  SHIFT=F  RSTRCT=F  DIIS=F  DEM=F  SOSCF=T
     DENSITY MATRIX CONV=  1.00E-08
     SOSCF WILL OPTIMIZE    1638 ORBITAL ROTATIONS, SOGTOL=   0.250
     MEMORY REQUIRED FOR RHF ITERS=    106545 WORDS.

 ITER EX DEM     TOTAL ENERGY        E CHANGE  DENSITY CHANGE     ORB. GRAD
   1  0  0     -195.8675175688  -195.8675175688   0.137199524   0.000000000
          ---------------START SECOND ORDER SCF---------------
   2  1  0     -196.2985807525    -0.4310631838   0.051773072   0.024134480
   3  2  0     -196.3224712489    -0.0238904963   0.018122277   0.012103861
   4  3  0     -196.3267889431    -0.0043176942   0.007033234   0.002151591
   5  4  0     -196.3269230768    -0.0001341337   0.001241060   0.000308910
   6  5  0     -196.3269284307    -0.0000053539   0.000236819   0.000088743
   7  6  0     -196.3269287534    -0.0000003227   0.000078466   0.000024046
   8  7  0     -196.3269287802    -0.0000000268   0.000012904   0.000004606
   9  8  0     -196.3269287813    -0.0000000011   0.000002563   0.000000868
  10  9  0     -196.3269287814    -0.0000000001   0.000000832   0.000000269
  11 10  0     -196.3269287814    -0.0000000000   0.000000112   0.000000057
  12 11  0     -196.3269287814    -0.0000000000   0.000000043   0.000000011
  13 12  0     -196.3269287814    -0.0000000000   0.000000000   0.000000003

          -----------------
          DENSITY CONVERGED
          -----------------
     TIME TO FORM FOCK OPERATORS=       0.2 SECONDS (       0.0 SEC/ITER)
     TIME TO SOLVE SCF EQUATIONS=       0.0 SECONDS (       0.0 SEC/ITER)

 FINAL RHF ENERGY IS     -196.3269287814 AFTER  13 ITERATIONS

          ------------
          EIGENVECTORS
          ------------

                      1          2          3          4          5
                  -11.2139   -11.2136   -11.2117   -11.2070   -11.2061
                     A          A          A          A          A   
    1  C  1  S    0.041235  -0.006242  -0.009765   0.994812   0.001673
    2  C  1  S    0.001167  -0.000213  -0.000518   0.028492   0.000001
    3  C  1  X   -0.000012   0.000094   0.000120  -0.000026  -0.000031
    4  C  1  Y   -0.000048   0.000057   0.000093  -0.000005  -0.000020
    5  C  1  Z   -0.000009   0.000003  -0.000045   0.000002   0.000014
    6  C  1  S    0.003780  -0.000522   0.000274  -0.015357   0.000678
    7  C  1  X   -0.000520  -0.000093  -0.000403   0.000232   0.000067
    8  C  1  Y   -0.001872   0.000237   0.000094   0.000643  -0.000194
    9  C  1  Z   -0.000022   0.000102   0.000210   0.000036  -0.000172
   10  C  1 XX   -0.000219  -0.000025  -0.000025  -0.001815  -0.000027
   11  C  1 YY   -0.000590   0.000069   0.000027  -0.001860   0.000010
   12  C  1 ZZ   -0.000193  -0.000024  -0.000069  -0.001821  -0.000015
   13  C  1 XY   -0.000030  -0.000027   0.000015  -0.000013   0.000020
   14  C  1 XZ    0.000004   0.000008  -0.000043  -0.000001   0.000015
   15  C  1 YZ   -0.000041  -0.000007   0.000013  -0.000007   0.000000
   16  H  2  S   -0.000192   0.000048  -0.000059   0.000146   0.000029
   17  H  2  S    0.000045  -0.000171  -0.000287   0.002634  -0.000063
   18  H  3  S   -0.000181  -0.000026   0.000001   0.000131  -0.000001
   19  H  3  S    0.000060   0.000024  -0.000309   0.002714  -0.000246
   20  H  4  S   -0.000127   0.000035   0.000006   0.000133  -0.000043
   21  H  4  S    0.000095   0.000163   0.000350   0.002515  -0.000121
   22  C  5  S    0.004224   0.037974  -0.009113  -0.001708   0.994966
   23  C  5  S    0.000221   0.001042  -0.000535  -0.000043   0.028509
   24  C  5  X    0.000019   0.000028  -0.000114  -0.000042   0.000022
   25  C  5  Y    0.000003  -0.000045   0.000105   0.000010  -0.000009
   26  C  5  Z    0.000011  -0.000014  -0.000042  -0.000021   0.000026
   27  C  5  S   -0.000344   0.004101   0.000514   0.000036  -0.015473
   28  C  5  X   -0.000347   0.001045   0.000264   0.000144  -0.000439
   29  C  5  Y    0.000081  -0.001651  -0.000153   0.000007   0.000514
   30  C  5  Z   -0.000057  -0.000618   0.000342   0.000133   0.000088
   31  C  5 XX   -0.000032  -0.000249  -0.000034  -0.000018  -0.001816
   32  C  5 YY   -0.000014  -0.000468  -0.000013   0.000005  -0.001828
   33  C  5 ZZ    0.000029  -0.000294  -0.000057  -0.000015  -0.001817
   34  C  5 XY    0.000035   0.000132  -0.000057   0.000009   0.000023
   35  C  5 XZ    0.000039   0.000050   0.000010  -0.000013   0.000019
   36  C  5 YZ   -0.000013  -0.000165   0.000049  -0.000000  -0.000016
   37  H  6  S   -0.000019  -0.000137  -0.000003   0.000024   0.000129
   38  H  6  S   -0.000066   0.000062   0.000324   0.000098   0.002477
   39  H  7  S    0.000017  -0.000187  -0.000024  -0.000003   0.000165
   40  H  7  S    0.000039   0.000039  -0.000436  -0.000055   0.002669
   41  H  8  S    0.000072  -0.000195  -0.000057  -0.000024   0.000122
   42  H  8  S   -0.000013   0.000001  -0.000124  -0.000113   0.002829
   43  C  9  S    0.111230   0.978317  -0.143962   0.000170  -0.039428
   44  C  9  S    0.002888   0.028083  -0.004030   0.000027  -0.000987
   45  C  9  X   -0.000148   0.000046   0.000122  -0.000039  -0.000068
   46  C  9  Y   -0.000025   0.000072  -0.000021  -0.000043   0.000013
   47  C  9  Z   -0.000030   0.000068   0.000042  -0.000013  -0.000016
   48  C  9  S   -0.000063  -0.016662   0.006270  -0.000181   0.003684
   49  C  9  X    0.000692  -0.000129   0.001676  -0.000159  -0.000889
   50  C  9  Y    0.000272  -0.000628  -0.000890   0.000095   0.001567
   51  C  9  Z    0.000395  -0.000810   0.000655  -0.000148   0.000601
   52  C  9 XX   -0.000298  -0.001593  -0.000063  -0.000050  -0.000163
   53  C  9 YY   -0.000333  -0.001591   0.000047  -0.000002  -0.000294
   54  C  9 ZZ   -0.000299  -0.001597   0.000003  -0.000025  -0.000103
   55  C  9 XY    0.000015   0.000068   0.000130  -0.000029   0.000156
   56  C  9 XZ   -0.000035  -0.000067  -0.000166  -0.000006   0.000040
   57  C  9 YZ   -0.000023  -0.000015   0.000082  -0.000010  -0.000140
   58  H 10  S   -0.000125   0.000222  -0.000180   0.000034  -0.000158
   59  H 10  S    0.000308   0.002566  -0.000606  -0.000194   0.000036
   60  H 11  S    0.000012   0.000204  -0.000175   0.000006  -0.000115
   61  H 11  S    0.000555   0.002568  -0.000588   0.000044   0.000001
   62  C 12  S    0.147322   0.126806   0.976708   0.004170   0.003376
   63  C 12  S    0.004321   0.003689   0.028002  -0.000127  -0.000190
   64  C 12  X    0.000100  -0.000093   0.000008  -0.000059   0.000076
   65  C 12  Y    0.000028   0.000062   0.000067  -0.000132  -0.000142
   66  C 12  Z   -0.000014  -0.000043  -0.000037   0.000015   0.000036
   67  C 12  S    0.001397   0.001155  -0.018219   0.000660   0.000895
   68  C 12  X    0.001685  -0.002096  -0.000142   0.000031   0.000032
   69  C 12  Y    0.000566   0.000350  -0.000863   0.000451   0.000666
   70  C 12  Z   -0.000411  -0.000446   0.000955  -0.000038  -0.000295
   71  C 12 XX   -0.000716  -0.000507  -0.001469  -0.000042  -0.000064
   72  C 12 YY   -0.000402  -0.000325  -0.001466  -0.000062  -0.000104
   73  C 12 ZZ   -0.000405  -0.000421  -0.001499  -0.000106  -0.000064
   74  C 12 XY   -0.000046   0.000070  -0.000010   0.000011  -0.000033
   75  C 12 XZ    0.000097  -0.000189  -0.000002  -0.000030   0.000025
   76  C 12 YZ    0.000072   0.000078   0.000038  -0.000004   0.000014
   77  H 13  S   -0.000156  -0.000097   0.000283  -0.000037  -0.000109
   78  H 13  S    0.000466   0.000111   0.002664  -0.000261   0.000054
   79  H 14  S   -0.000073  -0.000099   0.000253  -0.000007   0.000031
   80  H 14  S    0.000305   0.000163   0.002575   0.000326   0.000280
   81  C 15  S    0.977659  -0.130511  -0.130637  -0.042919  -0.000370
   82  C 15  S    0.028011  -0.003979  -0.003654  -0.001095   0.000172
   83  C 15  X   -0.000044   0.000146  -0.000104   0.000038   0.000002
   84  C 15  Y    0.000077  -0.000045  -0.000046   0.000017   0.000012
   85  C 15  Z    0.000007   0.000043   0.000007  -0.000006  -0.000024
   86  C 15  S   -0.016332   0.003674   0.006109   0.003907  -0.001243
   87  C 15  X    0.000420  -0.000825  -0.001824   0.000428   0.000340
   88  C 15  Y   -0.000696   0.000024  -0.000645   0.001815  -0.000316
   89  C 15  Z   -0.000210  -0.000140   0.000516   0.000039   0.000093
   90  C 15 XX   -0.001650   0.000102  -0.000151  -0.000090   0.000025
   91  C 15 YY   -0.001642   0.000075   0.000034  -0.000394   0.000044
   92  C 15 ZZ   -0.001552   0.000078   0.000054  -0.000036   0.000073
   93  C 15 XY   -0.000019  -0.000013  -0.000122  -0.000074   0.000016
   94  C 15 XZ    0.000064   0.000003   0.000128   0.000011   0.000012
   95  C 15 YZ   -0.000006  -0.000023   0.000075  -0.000027  -0.000015
   96  H 16  S    0.000199  -0.000061  -0.000133  -0.000129   0.000018
   97  H 16  S    0.002565  -0.000017  -0.000480  -0.000037  -0.000040
   98  H 17  S    0.000205  -0.000095  -0.000200  -0.000144   0.000065
   99  H 17  S    0.002644  -0.000740  -0.000315  -0.000033   0.000140

                      6          7          8          9         10
                   -1.0767    -1.0091    -0.9260    -0.8334    -0.7715
                     A          A          A          A          A   
    1  C  1  S   -0.067253   0.104290  -0.114634  -0.080929  -0.043441
    2  C  1  S    0.124916  -0.192510   0.212393   0.150932   0.080297
    3  C  1  X   -0.012694   0.001836   0.010301   0.009810  -0.008103
    4  C  1  Y   -0.039098   0.038297   0.021910   0.089790   0.103676
    5  C  1  Z   -0.001238   0.001769  -0.003107   0.002764   0.029810
    6  C  1  S    0.098436  -0.175773   0.217794   0.177409   0.109313
    7  C  1  X   -0.000826  -0.000324  -0.000071   0.004547  -0.006364
    8  C  1  Y   -0.004774   0.004794   0.008536   0.028524   0.033611
    9  C  1  Z   -0.000335   0.000379   0.000557   0.000286   0.009770
   10  C  1 XX    0.001751  -0.003103   0.006850   0.008174   0.005194
   11  C  1 YY    0.007888  -0.008481   0.000849  -0.007230  -0.008644
   12  C  1 ZZ    0.001405  -0.003109   0.006673   0.008536   0.008256
   13  C  1 XY    0.001659  -0.000951  -0.001983  -0.002820  -0.002108
   14  C  1 XZ    0.000150   0.000157  -0.000068   0.000126  -0.000370
   15  C  1 YZ    0.000308  -0.000300  -0.000261  -0.001189  -0.001743
   16  H  2  S    0.037220  -0.061809   0.081015   0.076018   0.068743
   17  H  2  S    0.007464  -0.012020   0.022376   0.028672   0.034914
   18  H  3  S    0.038291  -0.059650   0.084009   0.079826   0.054811
   19  H  3  S    0.008044  -0.009945   0.025468   0.030070   0.023458
   20  H  4  S    0.034045  -0.063897   0.086458   0.074452   0.038362
   21  H  4  S    0.004694  -0.013438   0.026680   0.028317   0.018400
   22  C  5  S   -0.064827  -0.108459  -0.107036   0.091556  -0.034128
   23  C  5  S    0.119698   0.200543   0.199011  -0.170088   0.062937
   24  C  5  X    0.021007   0.012873  -0.012141   0.041550  -0.013319
   25  C  5  Y   -0.032198  -0.033801   0.018313  -0.081791   0.070188
   26  C  5  Z   -0.011264  -0.014220   0.000291  -0.039104   0.065189
   27  C  5  S    0.097374   0.181196   0.200354  -0.202986   0.086340
   28  C  5  X    0.003325   0.001059  -0.004551   0.012018  -0.000125
   29  C  5  Y   -0.004841  -0.003855   0.007133  -0.026791   0.020823
   30  C  5  Z   -0.001786  -0.000736   0.000946  -0.012770   0.023579
   31  C  5 XX    0.002705   0.003885   0.005368  -0.006211   0.003207
   32  C  5 YY    0.005809   0.007222   0.002628   0.002638  -0.002752
   33  C  5 ZZ    0.001806   0.004203   0.005749  -0.006868   0.003078
   34  C  5 XY   -0.002938  -0.002205   0.002848  -0.007079   0.005782
   35  C  5 XZ   -0.001330  -0.000802   0.001321  -0.003259   0.001357
   36  C  5 YZ    0.002174   0.001834  -0.001479   0.006393  -0.006310
   37  H  6  S    0.032691   0.065805   0.080860  -0.085197   0.024129
   38  H  6  S    0.004958   0.014189   0.023538  -0.033440   0.012232
   39  H  7  S    0.035394   0.065567   0.074733  -0.086767   0.055772
   40  H  7  S    0.006685   0.013481   0.020848  -0.033188   0.028038
   41  H  8  S    0.036534   0.062199   0.079141  -0.085866   0.053573
   42  H  8  S    0.007071   0.010371   0.025331  -0.028784   0.027125
   43  C  9  S   -0.102875  -0.101012   0.007303  -0.096202   0.078337
   44  C  9  S    0.191017   0.187030  -0.014107   0.180587  -0.146430
   45  C  9  X    0.026985  -0.033703  -0.079329   0.017234   0.060073
   46  C  9  Y    0.003697   0.034326   0.082572  -0.079027   0.004937
   47  C  9  Z    0.025561   0.013835  -0.010190  -0.040889   0.120028
   48  C  9  S    0.152211   0.168735  -0.011806   0.209431  -0.193109
   49  C  9  X    0.004075  -0.007396  -0.018560   0.004599   0.019176
   50  C  9  Y   -0.000779   0.006485   0.021494  -0.023975   0.003625
   51  C  9  Z    0.002904  -0.000288   0.000118  -0.017209   0.041765
   52  C  9 XX    0.006982   0.001585  -0.005548   0.003522   0.000557
   53  C  9 YY    0.003729   0.007504   0.006451  -0.001821  -0.000829
   54  C  9 ZZ    0.003869   0.002955  -0.001697   0.006259  -0.005648
   55  C  9 XY   -0.002820  -0.001598  -0.001049   0.008537  -0.009652
   56  C  9 XZ    0.002526  -0.002989  -0.007726   0.000938   0.009166
   57  C  9 YZ   -0.000479   0.002881   0.006813  -0.005659   0.000568
   58  H 10  S    0.057390   0.057514  -0.003905   0.086798  -0.113745
   59  H 10  S    0.009915   0.009346   0.000903   0.030929  -0.054901
   60  H 11  S    0.054595   0.064430  -0.006848   0.094280  -0.086406
   61  H 11  S    0.008253   0.013862  -0.001808   0.036312  -0.038598
   62  C 12  S   -0.117152  -0.000619   0.115368  -0.000256  -0.094864
   63  C 12  S    0.217105   0.001525  -0.214539   0.001305   0.177865
   64  C 12  X    0.004491  -0.084795  -0.004976  -0.129339  -0.023789
   65  C 12  Y    0.025128   0.000744   0.029364   0.004666  -0.046135
   66  C 12  Z   -0.025953  -0.007076  -0.002123  -0.025740   0.124776
   67  C 12  S    0.173288  -0.000486  -0.217215  -0.003434   0.232236
   68  C 12  X    0.000282  -0.018007   0.000745  -0.038031  -0.008749
   69  C 12  Y    0.002612   0.000179   0.008035   0.001264  -0.015785
   70  C 12  Z   -0.002371  -0.000993  -0.005943  -0.005192   0.044501
   71  C 12 XX    0.009308  -0.001407  -0.001212  -0.002204  -0.011121
[...]
    2             0.013624   0.033415   0.057191   0.048575   0.042844
    3             0.014713   0.029647   0.064258   0.053815   0.024883
    4             0.010270   0.036773   0.067369   0.047157   0.012294
    5             0.175467   0.438936   0.396517   0.345100   0.102276
    6             0.009613   0.039335   0.058161   0.062541   0.004795
    7             0.012043   0.038506   0.048453   0.064470   0.028181
    8             0.013066   0.032316   0.058489   0.059486   0.026407
    9             0.411714   0.384986   0.100804   0.350421   0.311217
   10             0.030855   0.027699   0.000079   0.062336   0.112024
   11             0.026806   0.037735   0.000408   0.075803   0.060996
   12             0.529009   0.058736   0.450604   0.119409   0.404233
   13             0.038351   0.000050   0.046938   0.000439   0.157602
   14             0.035290   0.000003   0.076485   0.000010   0.074210
   15             0.433326   0.369103   0.117191   0.313856   0.321553
   16             0.027937   0.036186   0.000728   0.073285   0.060439
   17             0.030211   0.030695   0.000597   0.052319   0.114923

                     11         12         13         14         15

                  2.000000   2.000000   2.000000   2.000000   2.000000

    1             0.214510   0.295914   0.176381   0.446611   0.384384
    2             0.008036   0.047710   0.089678   0.012825   0.222498
    3             0.080894   0.057796   0.007315   0.059797   0.022702
    4             0.051800   0.061764   0.000823   0.236171   0.042105
    5             0.206561   0.130580   0.424561   0.403427   0.402281
    6             0.007791   0.047719   0.137155   0.093180   0.115207
    7             0.030136   0.005213   0.131084   0.025817   0.128250
    8             0.094126   0.000280   0.014147   0.149693   0.037572
    9             0.385701   0.105473   0.327937   0.155620   0.116794
   10             0.057741   0.000235   0.127674   0.011115   0.000485
   11             0.162178   0.010182   0.002524   0.068930   0.008219
   12             0.192004   0.463751   0.198987   0.070480   0.291777
   13             0.016271   0.074122   0.007530   0.001302   0.170490
   14             0.031770   0.219584   0.049440   0.003912   0.012886
   15             0.312206   0.330323   0.210080   0.199327   0.038440
   16             0.133807   0.029781   0.030365   0.060730   0.005907
   17             0.014468   0.119574   0.064318   0.001062   0.000003

                     16         17         18         19         20

                  2.000000   2.000000   2.000000   2.000000   2.000000

    1             0.464786   0.354191   0.218866   0.116401   0.230967
    2             0.000737   0.019984   0.150838   0.093383   0.001124
    3             0.283802   0.006302   0.049637   0.003352   0.030493
    4             0.085051   0.052975   0.012593   0.004920   0.029812
    5             0.252454   0.413091   0.346944   0.119370   0.194935
    6             0.097409   0.010181   0.026780   0.000662   0.068869
    7             0.026641   0.038237   0.210751   0.031108   0.019386
    8             0.070165   0.186989   0.000163   0.003742   0.016967
    9             0.172585   0.291640   0.319168   0.206516   0.315322
   10             0.012498   0.007775   0.188322   0.131427   0.062328
   11             0.044252   0.109157   0.000670   0.003851   0.050925
   12             0.157853   0.129435   0.064747   0.372908   0.421874
   13             0.010693   0.002640   0.004104   0.313648   0.001312
   14             0.016664   0.007775   0.002942   0.042054   0.261257
   15             0.194272   0.353453   0.220318   0.298102   0.226504
   16             0.108518   0.002936   0.034460   0.007549   0.064781
   17             0.001621   0.013241   0.148699   0.251008   0.003144

                     21

                  2.000000

    1             0.119312
    2             0.001337
    3             0.050426
    4             0.087135
    5             0.129938
    6             0.062006
    7             0.005584
    8             0.073323
    9             0.356610
   10             0.011723
   11             0.178067
   12             0.383809
   13             0.001088
   14             0.006610
   15             0.365543
   16             0.166554
   17             0.000935

               ----- POPULATIONS IN EACH AO -----
                             MULLIKEN      LOWDIN
              1  C  1  S      1.99662     1.98097
              2  C  1  S      0.62764     0.34990
              3  C  1  X      0.69247     0.62667
              4  C  1  Y      0.67823     0.62020
              5  C  1  Z      0.69132     0.62428
              6  C  1  S      0.64596     0.33046
              7  C  1  X      0.39055     0.49362
              8  C  1  Y      0.29044     0.41383
              9  C  1  Z      0.38870     0.49914
             10  C  1 XX      0.01117     0.15685
             11  C  1 YY      0.01216     0.15276
             12  C  1 ZZ      0.00782     0.15616
             13  C  1 XY      0.00704     0.01377
             14  C  1 XZ      0.00973     0.01004
             15  C  1 YZ      0.03243     0.01704
             16  H  2  S      0.52759     0.49539
             17  H  2  S      0.31674     0.36031
             18  H  3  S      0.52919     0.49488
             19  H  3  S      0.31119     0.35695
             20  H  4  S      0.52760     0.49580
             21  H  4  S      0.31192     0.35679
             22  C  5  S      1.99664     1.98099
             23  C  5  S      0.62844     0.35017
             24  C  5  X      0.68981     0.62549
             25  C  5  Y      0.68291     0.62157
             26  C  5  Z      0.68759     0.62225
             27  C  5  S      0.64532     0.33010
             28  C  5  X      0.37312     0.48023
             29  C  5  Y      0.31905     0.43843
             30  C  5  Z      0.37757     0.48871
             31  C  5 XX      0.01212     0.15051
             32  C  5 YY      0.00588     0.15401
             33  C  5 ZZ      0.01442     0.15640
             34  C  5 XY      0.01088     0.02226
             35  C  5 XZ      0.00476     0.01652
             36  C  5 YZ      0.03248     0.00768
             37  H  6  S      0.52780     0.49430
             38  H  6  S      0.31410     0.35768
             39  H  7  S      0.52794     0.49631
             40  H  7  S      0.31646     0.35976
             41  H  8  S      0.52893     0.49565
             42  H  8  S      0.30857     0.35586
             43  C  9  S      1.99682     1.97976
             44  C  9  S      0.62698     0.34492
             45  C  9  X      0.67916     0.61773
             46  C  9  Y      0.67625     0.61402
             47  C  9  Z      0.67991     0.61682
             48  C  9  S      0.61599     0.31211
             49  C  9  X      0.30974     0.41539
             50  C  9  Y      0.30775     0.42008
             51  C  9  Z      0.33984     0.45022
             52  C  9 XX      0.01567     0.14957
             53  C  9 YY      0.00610     0.14976
             54  C  9 ZZ      0.01709     0.15718
             55  C  9 XY      0.00843     0.02761
             56  C  9 XZ      0.00533     0.01306
             57  C  9 YZ      0.02621     0.00860
             58  H 10  S      0.53058     0.50440
             59  H 10  S      0.31428     0.35782
             60  H 11  S      0.53185     0.50449
             61  H 11  S      0.30940     0.35234
             62  C 12  S      1.99686     1.97962
             63  C 12  S      0.62762     0.34696
             64  C 12  X      0.66934     0.61270
             65  C 12  Y      0.68644     0.62310
             66  C 12  Z      0.67824     0.61526
             67  C 12  S      0.61351     0.31157
             68  C 12  X      0.24874     0.36966
             69  C 12  Y      0.36523     0.45708
             70  C 12  Z      0.34392     0.45345
             71  C 12 XX      0.01677     0.15592
             72  C 12 YY      0.01690     0.16062
             73  C 12 ZZ      0.00667     0.15914
             74  C 12 XY      0.00895     0.01107
             75  C 12 XZ      0.00328     0.01454
             76  C 12 YZ      0.02604     0.00495
             77  H 13  S      0.53023     0.50452
             78  H 13  S      0.31690     0.35911
             79  H 14  S      0.53190     0.50755
             80  H 14  S      0.30952     0.35225
             81  C 15  S      1.99683     1.97977
             82  C 15  S      0.62850     0.34560
             83  C 15  X      0.67666     0.61654
             84  C 15  Y      0.66983     0.60963
             85  C 15  Z      0.68857     0.62164
             86  C 15  S      0.61223     0.31101
             87  C 15  X      0.29891     0.41036
             88  C 15  Y      0.27844     0.39729
             89  C 15  Z      0.37313     0.47267
             90  C 15 XX      0.01329     0.15204
             91  C 15 YY      0.01205     0.15258
             92  C 15 ZZ      0.01075     0.15581
             93  C 15 XY      0.00925     0.01954
             94  C 15 XZ      0.00815     0.01470
             95  C 15 YZ      0.02579     0.01403
             96  H 16  S      0.53182     0.50342
             97  H 16  S      0.31267     0.35444
             98  H 17  S      0.53145     0.50541
             99  H 17  S      0.31593     0.35789

          ----- MULLIKEN ATOMIC OVERLAP POPULATIONS -----
          (OFF-DIAGONAL ELEMENTS NEED TO BE MULTIPLIED BY 2)

             1           2           3           4           5

    1    5.1091711
    2    0.3918604   0.5483080
    3    0.3928278  -0.0302055   0.5442709
    4    0.3957057  -0.0284065  -0.0291918   0.5397420
    5   -0.0012130  -0.0000075  -0.0023194   0.0000667   5.1008060
    6    0.0000234   0.0000074   0.0000980  -0.0000014   0.3947221
    7    0.0000441   0.0000216   0.0000344  -0.0000020   0.3927118
    8   -0.0016234   0.0000801   0.0000625   0.0001169   0.3931550
    9   -0.0011513  -0.0002788   0.0021939  -0.0001484   0.3359826
   10    0.0000616   0.0000934   0.0004600  -0.0000609  -0.0399741
   11   -0.0000530  -0.0000139   0.0000027   0.0000028  -0.0433252
   12   -0.0529897  -0.0027445  -0.0032456   0.0041903  -0.0490275
   13   -0.0036885   0.0028471   0.0001365  -0.0000829  -0.0052623
   14    0.0045805  -0.0000474  -0.0000989  -0.0000941   0.0038706
   15    0.3339653  -0.0391913  -0.0354834  -0.0360556   0.0008372
   16   -0.0424559  -0.0024065   0.0042191  -0.0039897  -0.0001776
   17   -0.0427730   0.0044151  -0.0033817  -0.0022713   0.0001420

             6           7           8           9          10

    6    0.5424235
    7   -0.0284180   0.5484249
    8   -0.0282306  -0.0297214   0.5400464
    9   -0.0373595  -0.0386043  -0.0371747   5.0884905
   10   -0.0024704   0.0042429  -0.0026936   0.3993137   0.5598018
   11   -0.0029934  -0.0033059   0.0042378   0.4072554  -0.0322161
   12    0.0042531  -0.0039265  -0.0016431   0.3243923  -0.0451934
   13    0.0000818   0.0027633   0.0005040  -0.0451374   0.0041282
   14   -0.0001061  -0.0000142  -0.0000842  -0.0409383   0.0010862
   15   -0.0001307   0.0001461   0.0004605  -0.0457465  -0.0046429
   16    0.0000026   0.0000020  -0.0000184   0.0045680   0.0000831
   17    0.0000018   0.0000024   0.0000272  -0.0043811   0.0028364

            11          12          13          14          15

   11    0.5551045
   12   -0.0410032   5.1090199
   13    0.0008133   0.3959973   0.5625447
   14   -0.0066529   0.4071648  -0.0307484   0.5530027
   15    0.0035685   0.3494420  -0.0398592  -0.0429423   5.0527270
   16   -0.0001074  -0.0437527  -0.0025463  -0.0038534   0.4059772
   17   -0.0000632  -0.0424302   0.0046384  -0.0027079   0.3993082

            16          17

   16    0.5607952
   17   -0.0318464   0.5658625

          TOTAL MULLIKEN AND LOWDIN ATOMIC POPULATIONS
       ATOM         MULL.POP.    CHARGE          LOW.POP.     CHARGE
    1 C             6.482292   -0.482292         6.445685   -0.445685
    2 H             0.844331    0.155669         0.855698    0.144302
    3 H             0.840380    0.159620         0.851829    0.148171
    4 H             0.839520    0.160480         0.852585    0.147415
    5 C             6.480988   -0.480988         6.445309   -0.445309
    6 H             0.841904    0.158096         0.851983    0.148017
    7 H             0.844401    0.155599         0.856068    0.143932
    8 H             0.837501    0.162499         0.851513    0.148487
    9 C             6.311276   -0.311276         6.276829   -0.276829
   10 H             0.844856    0.155144         0.862217    0.137783
   11 H             0.841250    0.158750         0.856831    0.143169
   12 C             6.308503   -0.308503         6.275644   -0.275644
   13 H             0.847130    0.152870         0.863634    0.136366
   14 H             0.841417    0.158583         0.859798    0.140202
   15 C             6.302380   -0.302380         6.273206   -0.273206
   16 H             0.844493    0.155507         0.857868    0.142132
   17 H             0.847379    0.152621         0.863304    0.136696

          MULLIKEN SPHERICAL HARMONIC POPULATIONS
       ATOM           S       P       D      F      G      H      I    TOTAL
    1 C             3.30    3.13    0.05   0.00   0.00   0.00   0.00    6.48
    2 H             0.84    0.00    0.00   0.00   0.00   0.00   0.00    0.84
    3 H             0.84    0.00    0.00   0.00   0.00   0.00   0.00    0.84
    4 H             0.84    0.00    0.00   0.00   0.00   0.00   0.00    0.84
    5 C             3.30    3.13    0.05   0.00   0.00   0.00   0.00    6.48
    6 H             0.84    0.00    0.00   0.00   0.00   0.00   0.00    0.84
    7 H             0.84    0.00    0.00   0.00   0.00   0.00   0.00    0.84
    8 H             0.84    0.00    0.00   0.00   0.00   0.00   0.00    0.84
    9 C             3.27    2.99    0.05   0.00   0.00   0.00   0.00    6.31
   10 H             0.84    0.00    0.00   0.00   0.00   0.00   0.00    0.84
   11 H             0.84    0.00    0.00   0.00   0.00   0.00   0.00    0.84
   12 C             3.26    2.99    0.05   0.00   0.00   0.00   0.00    6.31
   13 H             0.85    0.00    0.00   0.00   0.00   0.00   0.00    0.85
   14 H             0.84    0.00    0.00   0.00   0.00   0.00   0.00    0.84
   15 C             3.26    2.99    0.05   0.00   0.00   0.00   0.00    6.30
   16 H             0.84    0.00    0.00   0.00   0.00   0.00   0.00    0.84
   17 H             0.85    0.00    0.00   0.00   0.00   0.00   0.00    0.85

          -------------------------------
          BOND ORDER AND VALENCE ANALYSIS     BOND ORDER THRESHOLD=0.050
          -------------------------------

                   BOND                       BOND                       BOND
  ATOM PAIR DIST  ORDER      ATOM PAIR DIST  ORDER      ATOM PAIR DIST  ORDER
    1   2  1.087  0.960        1   3  1.085  0.958        1   4  1.086  0.962
    1  15  1.529  0.975        5   6  1.086  0.963        5   7  1.086  0.961
    5   8  1.084  0.958        5   9  1.531  0.977        9  10  1.088  0.959
    9  11  1.087  0.965        9  12  1.541  0.955       12  13  1.089  0.957
   12  14  1.087  0.965       12  15  1.535  0.981       15  16  1.088  0.962
   15  17  1.088  0.958

                       TOTAL       BONDED        FREE
      ATOM            VALENCE     VALENCE     VALENCE
    1 C                 3.809       3.809       0.000
    2 H                 0.933       0.933       0.000
    3 H                 0.931       0.931       0.000
    4 H                 0.931       0.931       0.000
    5 C                 3.815       3.815       0.000
    6 H                 0.932       0.932      -0.000
    7 H                 0.932       0.932      -0.000
    8 H                 0.931       0.931       0.000
    9 C                 3.778       3.778       0.000
   10 H                 0.929       0.929       0.000
   11 H                 0.927       0.927      -0.000
   12 C                 3.768       3.768       0.000
   13 H                 0.930       0.930       0.000
   14 H                 0.928       0.928      -0.000
   15 C                 3.801       3.801      -0.000
   16 H                 0.927       0.927      -0.000
   17 H                 0.928       0.928      -0.000

          ---------------------
          ELECTROSTATIC MOMENTS
          ---------------------

 POINT   1           X           Y           Z (BOHR)    CHARGE
                -0.000000   -0.000000   -0.000000       -0.00 (A.U.)
         DX          DY          DZ         /D/  (DEBYE)
     0.025433   -0.111372   -0.026602    0.117295
 ...... END OF PROPERTY EVALUATION ......
 CPU     0: STEP CPU TIME=     0.02 TOTAL CPU TIME=       10.8 (    0.2 MIN)
 TOTAL WALL CLOCK TIME=       11.2 SECONDS, CPU UTILIZATION IS  96.69%
  $VIB   
          IVIB=   0 IATOM=   0 ICOORD=   0 E=     -196.3269304614
 -2.998325514E-07-4.195630536E-07-3.214243978E-07 2.287016910E-07 6.906046835E-08
  3.032329095E-08 1.831338944E-10 1.376074411E-07 1.213516846E-08 3.863171288E-08
  7.359232559E-08 1.806624083E-07-1.489556258E-07 7.811025869E-07 3.952463843E-07
  1.173801951E-10-2.065467575E-07 1.022659144E-11 3.753120017E-08-1.705106390E-07
 -1.085796879E-07 4.122393525E-08-5.798976267E-08-1.987723712E-07 3.302353147E-07
 -7.067168203E-07-4.792441887E-07 7.837274482E-08-6.780692746E-08-4.307892484E-11
 -1.927669156E-07 1.786756572E-07 1.543780613E-07-3.703733662E-07 3.757719169E-07
  4.590879614E-07 5.266202324E-08-7.387077148E-08 4.855143700E-08 1.649938170E-07
  2.702270538E-08-3.040298726E-07-1.844300284E-07-9.229160347E-08 3.691497261E-07
  1.172553603E-07-2.904424514E-08-2.267503867E-07 1.064501739E-07 1.815074792E-07
 -1.070068046E-08
  2.543261747E-02-1.113717962E-01-2.660224538E-02
 ......END OF GEOMETRY SEARCH......
 CPU     0: STEP CPU TIME=     0.00 TOTAL CPU TIME=       10.8 (    0.2 MIN)
 TOTAL WALL CLOCK TIME=       11.2 SECONDS, CPU UTILIZATION IS  96.60%
              1133387  WORDS OF DYNAMIC MEMORY USED
 EXECUTION OF GAMESS TERMINATED NORMALLY Thu Jan 18 12:03:33 2018
 DDI: 263624 bytes (0.3 MB / 0 MWords) used by master data server.

 ----------------------------------------
 CPU timing information for all processes
 ========================================
 0: 9.427 + 1.420 = 10.848
 1: 9.339 + 1.245 = 10.585
 2: 9.326 + 1.283 = 10.610
 3: 9.385 + 1.268 = 10.654
 4: 9.293 + 1.305 = 10.599
 5: 9.319 + 1.304 = 10.624
 6: 9.330 + 1.251 = 10.582
 7: 9.277 + 1.236 = 10.514
 ----------------------------------------
 ddikick.x: exited gracefully.
unset echo
----- accounting info -----
Files used on the master node wr31 were:
-rw-r--r-- 1 kkirsc3m fb03-hpc  1068351 Jan 18 12:03 /tmp/8026.wr0.wr.inf.h-brs.de/molecule-4-gam.dat
-rw-r--r-- 1 kkirsc3m fb03-hpc     1262 Jan 18 12:03 /tmp/8026.wr0.wr.inf.h-brs.de/molecule-4-gam.F05
-rw-r--r-- 1 kkirsc3m fb03-hpc 15481376 Jan 18 12:03 /tmp/8026.wr0.wr.inf.h-brs.de/molecule-4-gam.F08
-rw-r--r-- 1 kkirsc3m fb03-hpc 14941328 Jan 18 12:03 /tmp/8026.wr0.wr.inf.h-brs.de/molecule-4-gam.F08.001
-rw-r--r-- 1 kkirsc3m fb03-hpc 14221264 Jan 18 12:03 /tmp/8026.wr0.wr.inf.h-brs.de/molecule-4-gam.F08.002
-rw-r--r-- 1 kkirsc3m fb03-hpc 16741488 Jan 18 12:03 /tmp/8026.wr0.wr.inf.h-brs.de/molecule-4-gam.F08.003
-rw-r--r-- 1 kkirsc3m fb03-hpc 15121344 Jan 18 12:03 /tmp/8026.wr0.wr.inf.h-brs.de/molecule-4-gam.F08.004
-rw-r--r-- 1 kkirsc3m fb03-hpc 16921504 Jan 18 12:03 /tmp/8026.wr0.wr.inf.h-brs.de/molecule-4-gam.F08.005
-rw-r--r-- 1 kkirsc3m fb03-hpc 17101520 Jan 18 12:03 /tmp/8026.wr0.wr.inf.h-brs.de/molecule-4-gam.F08.006
-rw-r--r-- 1 kkirsc3m fb03-hpc 16921504 Jan 18 12:03 /tmp/8026.wr0.wr.inf.h-brs.de/molecule-4-gam.F08.007
-rw-r--r-- 1 kkirsc3m fb03-hpc  2683040 Jan 18 12:03 /tmp/8026.wr0.wr.inf.h-brs.de/molecule-4-gam.F10
ls: No match.
ls: No match.
ls: No match.
Thu Jan 18 12:03:36 CET 2018
0.196u 0.173s 0:14.69 2.4%	0+0k 2264+192io 10pf+0w
