----- GAMESS execution script 'rungms' -----
This job is running on host wr35
under operating system Linux at Thu Jan 18 12:03:21 CET 2018
PBS has assigned the following compute nodes to this run:
wr35
Available scratch disk space (Kbyte units) at beginning of the job is
Filesystem     1K-blocks    Used Available Use% Mounted on
/dev/sda2      379797844 9532252 350966316   3% /
GAMESS temporary binary files will be written to /tmp/8024.wr0.wr.inf.h-brs.de
GAMESS supplementary output files will be written to /tmp/8024.wr0.wr.inf.h-brs.de
Copying input file molecule-2-gam.inp to your run's scratch directory...
cp molecule-2-gam.inp /tmp/8024.wr0.wr.inf.h-brs.de/molecule-2-gam.F05
unset echo
/usr/local/hpc5/gamess-gnu/ddikick.x /usr/local/hpc5/gamess-gnu/gamess.00.x molecule-2-gam -ddi 1 8 wr35:cpus=8:netext=.myri -scr /tmp/8024.wr0.wr.inf.h-brs.de

 Distributed Data Interface kickoff program.
 Initiating 8 compute processes on 1 nodes to run the following command:
 /usr/local/hpc5/gamess-gnu/gamess.00.x molecule-2-gam 

          ******************************************************
          *         GAMESS VERSION =  1 MAY 2013 (R1)          *
          *             FROM IOWA STATE UNIVERSITY             *
          * M.W.SCHMIDT, K.K.BALDRIDGE, J.A.BOATZ, S.T.ELBERT, *
          *   M.S.GORDON, J.H.JENSEN, S.KOSEKI, N.MATSUNAGA,   *
          *          K.A.NGUYEN, S.J.SU, T.L.WINDUS,           *
          *       TOGETHER WITH M.DUPUIS, J.A.MONTGOMERY       *
          *         J.COMPUT.CHEM.  14, 1347-1363(1993)        *
          **************** 64 BIT LINUX VERSION ****************

  SINCE 1993, STUDENTS AND POSTDOCS WORKING AT IOWA STATE UNIVERSITY
  AND ALSO IN THEIR VARIOUS JOBS AFTER LEAVING ISU HAVE MADE IMPORTANT
  CONTRIBUTIONS TO THE CODE:
     IVANA ADAMOVIC, CHRISTINE AIKENS, YURI ALEXEEV, POOJA ARORA,
     ANDREY ASADCHEV, ROB BELL, PRADIPTA BANDYOPADHYAY, JONATHAN BENTZ,
     BRETT BODE, GALINA CHABAN, WEI CHEN, CHEOL HO CHOI, PAUL DAY,
     ALBERT DEFUSCO, TIM DUDLEY, DMITRI FEDOROV, GRAHAM FLETCHER,
     MARK FREITAG, KURT GLAESEMANN, DAN KEMP, GRANT MERRILL,
     NORIYUKI MINEZAWA, JONATHAN MULLIN, TAKESHI NAGATA,
     SEAN NEDD, HEATHER NETZLOFF, BOSILJKA NJEGIC, RYAN OLSON, MIKE PAK,
     JIM SHOEMAKER, LYUDMILA SLIPCHENKO, SAROM SOK, JIE SONG,
     TETSUYA TAKETSUGU, SIMON WEBB, SOOHAENG YOO, FEDERICO ZAHARIEV

  ADDITIONAL CODE HAS BEEN PROVIDED BY COLLABORATORS IN OTHER GROUPS:
     IOWA STATE UNIVERSITY:
          JOE IVANIC, LAIMUTIS BYTAUTAS, KLAUS RUEDENBERG
     UNIVERSITY OF TOKYO: KIMIHIKO HIRAO, TAKAHITO NAKAJIMA,
          TAKAO TSUNEDA, MUNEAKI KAMIYA, SUSUMU YANAGISAWA,
          KIYOSHI YAGI, MAHITO CHIBA, SEIKEN TOKURA, NAOAKI KAWAKAMI
     UNIVERSITY OF AARHUS: FRANK JENSEN
     UNIVERSITY OF IOWA: VISVALDAS KAIRYS, HUI LI
     NATIONAL INST. OF STANDARDS AND TECHNOLOGY: WALT STEVENS, DAVID GARMER
     UNIVERSITY OF PISA: BENEDETTA MENNUCCI, JACOPO TOMASI
     UNIVERSITY OF MEMPHIS: HENRY KURTZ, PRAKASHAN KORAMBATH
     UNIVERSITY OF ALBERTA: TOBY ZENG, MARIUSZ KLOBUKOWSKI
     UNIVERSITY OF NEW ENGLAND: MARK SPACKMAN
     MIE UNIVERSITY: HIROAKI UMEDA
     MICHIGAN STATE UNIVERSITY:
          KAROL KOWALSKI, MARTA WLOCH, JEFFREY GOUR, JESSE LUTZ,
          WEI LI, PIOTR PIECUCH
     UNIVERSITY OF SILESIA: MONIKA MUSIAL, STANISLAW KUCHARSKI
     FACULTES UNIVERSITAIRES NOTRE-DAME DE LA PAIX:
          OLIVIER QUINET, BENOIT CHAMPAGNE
     UNIVERSITY OF CALIFORNIA - SANTA BARBARA: BERNARD KIRTMAN
     INSTITUTE FOR MOLECULAR SCIENCE:
          KAZUYA ISHIMURA, MICHIO KATOUDA, AND SHIGERU NAGASE
     UNIVERSITY OF NOTRE DAME: DAN CHIPMAN
     KYUSHU UNIVERSITY:
          HARUYUKI NAKANO,
          FENG LONG GU, JACEK KORCHOWIEC, MARCIN MAKOWSKI, AND YURIKO AOKI,
          HIROTOSHI MORI AND EISAKU MIYOSHI
     PENNSYLVANIA STATE UNIVERSITY:
          TZVETELIN IORDANOV, CHET SWALINA, JONATHAN SKONE,
          SHARON HAMMES-SCHIFFER
     WASEDA UNIVERSITY:
          MASATO KOBAYASHI, TOMOKO AKAMA, TSUGUKI TOUMA,
          TAKESHI YOSHIKAWA, YASUHIRO IKABATA, HIROMI NAKAI
     NANJING UNIVERSITY: SHUHUA LI
     UNIVERSITY OF NEBRASKA:
          PEIFENG SU, DEJUN SI, NANDUN THELLAMUREGE, YALI WANG, HUI LI
     UNIVERSITY OF ZURICH:
          ROBERTO PEVERATI, KIM BALDRIDGE
     N. COPERNICUS UNIVERSITY AND JACKSON STATE UNIVERSITY:
          MARIA BARYSZ


 PARALLEL VERSION RUNNING ON     8 PROCESSORS IN     1 NODES.

 EXECUTION OF GAMESS BEGUN Thu Jan 18 12:03:22 2018

            ECHO OF THE FIRST FEW INPUT CARDS -
 INPUT CARD> $CONTRL ICHARG=0 NZVAR=45 MPLEVL=0 ISPHER=0                                    
 INPUT CARD>         RUNTYP=OPTIMIZE SCFTYP=RHF EXETYP=RUN                                  
 INPUT CARD>         MULT=1 UNITS=ANGS MAXIT=200                                            
 INPUT CARD>         COORD=PRINAXIS                       $END                              
 INPUT CARD> $BASIS  GBASIS=N31 NGAUSS=6 NDFUNC=1 NPFUNC=0                                  
 INPUT CARD>         DIFFSP=.F.                           $END                              
 INPUT CARD> $SCF    DIRSCF=.F. CONV=1.0E-08              $END                              
 INPUT CARD> $SYSTEM TIMLIM=50000 MWORDS=110 MEMDDI=0 $END                                  
 INPUT CARD> $FORCE  METHOD=SEMINUM VIBANL=.F.            $END                              
 INPUT CARD> $STATPT NSTEP=200 OPTTOL=1.0E-06             $END                              
 INPUT CARD> $GUESS  GUESS=HUCKEL                         $END                              
 INPUT CARD> $ZMAT   AUTO=.TRUE. DLC=.TRUE.               $END                              
 INPUT CARD> $DATA                                                                          
 INPUT CARD> Full optimization                                                              
 INPUT CARD> C1                                                                             
 INPUT CARD> C     6.0     -2.126  -0.687   0.207                                           
 INPUT CARD> H     1.0     -2.114  -0.769   1.290                                           
 INPUT CARD> H     1.0     -1.677  -1.588  -0.198                                           
 INPUT CARD> H     1.0     -3.165  -0.672  -0.111                                           
 INPUT CARD> C     6.0      2.450  -0.158   0.117                                           
 INPUT CARD> H     1.0      3.105  -0.921  -0.293                                           
 INPUT CARD> H     1.0      2.824   0.809  -0.208                                           
 INPUT CARD> H     1.0      2.534  -0.197   1.199                                           
 INPUT CARD> C     6.0      1.004  -0.369  -0.332                                           
 INPUT CARD> H     1.0      0.680  -1.361  -0.028                                           
 INPUT CARD> H     1.0      0.957  -0.351  -1.419                                           
 INPUT CARD> C     6.0      0.051   0.689   0.231                                           
 INPUT CARD> H     1.0      0.068   0.645   1.319                                           
 INPUT CARD> H     1.0      0.430   1.674  -0.038                                           
 INPUT CARD> C     6.0     -1.397   0.575  -0.258                                           
 INPUT CARD> H     1.0     -1.949   1.444   0.093                                           
 INPUT CARD> H     1.0     -1.415   0.623  -1.345                                           
 INPUT CARD> $END                                                                           
  110000000 WORDS OF MEMORY AVAILABLE

     BASIS OPTIONS
     -------------
     GBASIS=N31          IGAUSS=       6      POLAR=POPN31  
     NDFUNC=       1     NFFUNC=       0     DIFFSP=       F
     NPFUNC=       0      DIFFS=       F     BASNAM=        


     RUN TITLE
     ---------
  Full optimization                                                              

 THE POINT GROUP OF THE MOLECULE IS C1      
 THE ORDER OF THE PRINCIPAL AXIS IS     0

 THE MOMENTS OF INERTIA ARE (AMU-ANGSTROM**2)
 IXX=    42.488   IYY=   223.255   IZZ=   241.057

 ATOM      ATOMIC                      COORDINATES (BOHR)
           CHARGE         X                   Y                   Z
 C           6.0    -4.0247421683       -1.2967474930        0.3334084753
 H           1.0    -4.0174436883       -1.5028245205        2.3755806293
 H           1.0    -3.1742131725       -2.9816701006       -0.4680300872
 H           1.0    -5.9836306537       -1.2489334786       -0.2809468226
 C           6.0     4.6257337213       -0.3128258782        0.2515080999
 H           1.0     5.8661500344       -1.7376981391       -0.5500161499
 H           1.0     5.3408114592        1.5276958465       -0.3116139312
 H           1.0     4.7692724145       -0.4379326510        2.2948153820
 C           6.0     1.8986765072       -0.6840224041       -0.6266064029
 H           1.0     1.2782753497       -2.5709962376       -0.1036460705
 H           1.0     1.8250420961       -0.5985104994       -2.6798404562
 C           6.0     0.0941780885        1.2922036103        0.4737691934
 H           1.0     0.1110056747        1.1576560866        2.5272504724
 H           1.0     0.8179969700        3.1640650527        0.0173550515
 C           6.0    -2.6357189450        1.1061494106       -0.4753550673
 H           1.0    -3.6802599711        2.7336114626        0.2211405045
 H           1.0    -2.6544342857        1.2482105615       -2.5267721401

          INTERNUCLEAR DISTANCES (ANGS.)
          ------------------------------

                1 C          2 H          3 H          4 H          5 C     

   1 C       0.0000000    1.0861662 *  1.0850931 *  1.0866784 *  4.6073547  
   2 H       1.0861662 *  0.0000000    1.7538170 *  1.7540841 *  4.7517729  
   3 H       1.0850931 *  1.7538170 *  0.0000000    1.7495054 *  4.3790700  
   4 H       1.0866784 *  1.7540841 *  1.7495054 *  0.0000000    5.6430847  
   5 C       4.6073547    4.7517729    4.3790700    5.6430847    0.0000000  
   6 H       5.2600491    5.4559100    4.8292275    6.2775811    1.0859530 *
   7 H       5.1877491    5.3961034    5.0994813    6.1701613    1.0865496 *
   8 H       4.7895474    4.6839480    4.6496248    5.8668838    1.0859563 *
   9 C       3.1919500    3.5373448    2.9481652 *  4.1858346    1.5287374 *
  10 H       2.8953647 *  3.1454768    2.3740004 *  3.9071262    2.1450254 *
  11 H       3.5016655    4.1163632    3.1557829    4.3364489    2.1507194 *
  12 C       2.5755157 *  2.8168191 *  2.8904591 *  3.5088376    2.5466853 *
  13 H       2.7972136 *  2.6002617 *  3.2144367    3.7724896    2.7863124 *
  14 H       3.4881918    3.7687888    3.8866043    4.2933751    2.7314189 *
  15 C       1.5298072 *  2.1718032 *  2.1818728 *  2.1685115 *  3.9341229  
  16 H       2.1413748 *  2.5213891 *  3.0580531    2.4490259 *  4.6816857  
  17 H       2.1518190 *  3.0609623    2.5045507 *  2.5024550 *  4.2054286  

                6 H          7 H          8 H          9 C         10 H     

   1 C       5.2600491    5.1877491    4.7895474    3.1919500    2.8953647 *
   2 H       5.4559100    5.3961034    4.6839480    3.5373448    3.1454768  
   3 H       4.8292275    5.0994813    4.6496248    2.9481652 *  2.3740004 *
   4 H       6.2775811    6.1701613    5.8668838    4.1858346    3.9071262  
   5 C       1.0859530 *  1.0865496 *  1.0859563 *  1.5287374 *  2.1450254 *
   6 H       0.0000000    1.7547325 *  1.7539330 *  2.1726541 *  2.4788001 *
   7 H       1.7547325 *  0.0000000    1.7537916 *  2.1715110 *  3.0558200  
   8 H       1.7539330 *  1.7537916 *  0.0000000    2.1712773 *  2.5095300 *
   9 C       2.1726541 *  2.1715110 *  2.1712773 *  0.0000000    1.0869480 *
  10 H       2.4788001 *  3.0558200    2.5095300 *  1.0869480 *  0.0000000  
  11 H       2.4913209 *  2.5095438 *  3.0601583    1.0881645 *  1.7411806 *
  12 C       3.4919324    2.8100979 *  2.8084353 *  1.5311897 *  2.1599125 *
  13 H       3.7781304    3.1550216    2.6085475 *  2.1517651 *  2.4925868 *
  14 H       3.7355957    2.5511490 *  3.0753253    2.1423728 *  3.0452956  
  15 C       4.7441801    4.2277768    4.2628153    2.5809713 *  2.8486707 *
  16 H       5.5933118    4.8244539    4.9003475    3.4911034    3.8463368  
  17 H       4.8909140    4.3927766    4.7685361    2.8038891 *  3.1717140  

               11 H         12 C         13 H         14 H         15 C     

   1 C       3.5016655    2.5755157 *  2.7972136 *  3.4881918    1.5298072 *
   2 H       4.1163632    2.8168191 *  2.6002617 *  3.7687888    2.1718032 *
   3 H       3.1557829    2.8904591 *  3.2144367    3.8866043    2.1818728 *
   4 H       4.3364489    3.5088376    3.7724896    4.2933751    2.1685115 *
   5 C       2.1507194 *  2.5466853 *  2.7863124 *  2.7314189 *  3.9341229  
   6 H       2.4913209 *  3.4919324    3.7781304    3.7355957    4.7441801  
   7 H       2.5095438 *  2.8100979 *  3.1550216    2.5511490 *  4.2277768  
   8 H       3.0601583    2.8084353 *  2.6085475 *  3.0753253    4.2628153  
   9 C       1.0881645 *  1.5311897 *  2.1517651 *  2.1423728 *  2.5809713 *
  10 H       1.7411806 *  2.1599125 *  2.4925868 *  3.0452956    2.8486707 *
  11 H       0.0000000    2.1505664 *  3.0461420    2.5070929 *  2.7832918 *
  12 C       2.1505664 *  0.0000000    1.0890220 *  1.0891405 *  1.5325864 *
  13 H       3.0461420    1.0890220 *  0.0000000    1.7410727 *  2.1536142 *
  14 H       2.5070929 *  1.0891405 *  1.7410727 *  0.0000000    2.1433922 *
  15 C       2.7832918 *  1.5325864 *  2.1536142 *  2.1433922 *  0.0000000  
  16 H       3.7353721    2.1422112 *  2.4919402 *  2.3936796 *  1.0876884 *
  17 H       2.5652555 *  2.1534363 *  3.0490439    2.4933662 *  1.0882082 *

               16 H         17 H     

   1 C       2.1413748 *  2.1518190 *
   2 H       2.5213891 *  3.0609623  
   3 H       3.0580531    2.5045507 *
   4 H       2.4490259 *  2.5024550 *
   5 C       4.6816857    4.2054286  
   6 H       5.5933118    4.8909140  
   7 H       4.8244539    4.3927766  
   8 H       4.9003475    4.7685361  
   9 C       3.4911034    2.8038891 *
  10 H       3.8463368    3.1717140  
  11 H       3.7353721    2.5652555 *
  12 C       2.1422112 *  2.1534363 *
  13 H       2.4919402 *  3.0490439  
  14 H       2.3936796 *  2.4933662 *
  15 C       1.0876884 *  1.0882082 *
  16 H       0.0000000    1.7398394 *
  17 H       1.7398394 *  0.0000000  

  * ... LESS THAN  3.000


     ATOMIC BASIS SET
     ----------------
 THE CONTRACTED PRIMITIVE FUNCTIONS HAVE BEEN UNNORMALIZED
 THE CONTRACTED BASIS FUNCTIONS ARE NOW NORMALIZED TO UNITY

  SHELL TYPE  PRIMITIVE        EXPONENT          CONTRACTION COEFFICIENT(S)

 C         

      1   S       1          3047.5248800    0.001834737132
      1   S       2           457.3695180    0.014037322813
      1   S       3           103.9486850    0.068842622264
      1   S       4            29.2101553    0.232184443216
      1   S       5             9.2866630    0.467941348435
      1   S       6             3.1639270    0.362311985337

      2   L       7             7.8682723   -0.119332419775    0.068999066591
      2   L       8             1.8812885   -0.160854151696    0.316423960957
      2   L       9             0.5442493    1.143456437840    0.744308290898

      3   L      10             0.1687145    1.000000000000    1.000000000000

      4   D      11             0.8000000    1.000000000000

 H         

      5   S      12            18.7311370    0.033494604338
      5   S      13             2.8253944    0.234726953484
      5   S      14             0.6401217    0.813757326146

      6   S      15             0.1612778    1.000000000000

 H         

      7   S      16            18.7311370    0.033494604338
      7   S      17             2.8253944    0.234726953484
      7   S      18             0.6401217    0.813757326146

      8   S      19             0.1612778    1.000000000000

 H         

      9   S      20            18.7311370    0.033494604338
      9   S      21             2.8253944    0.234726953484
      9   S      22             0.6401217    0.813757326146

     10   S      23             0.1612778    1.000000000000

 C         

     11   S      24          3047.5248800    0.001834737132
     11   S      25           457.3695180    0.014037322813
     11   S      26           103.9486850    0.068842622264
     11   S      27            29.2101553    0.232184443216
     11   S      28             9.2866630    0.467941348435
     11   S      29             3.1639270    0.362311985337

     12   L      30             7.8682723   -0.119332419775    0.068999066591
     12   L      31             1.8812885   -0.160854151696    0.316423960957
     12   L      32             0.5442493    1.143456437840    0.744308290898

     13   L      33             0.1687145    1.000000000000    1.000000000000

     14   D      34             0.8000000    1.000000000000

 H         

     15   S      35            18.7311370    0.033494604338
     15   S      36             2.8253944    0.234726953484
     15   S      37             0.6401217    0.813757326146

     16   S      38             0.1612778    1.000000000000

 H         

     17   S      39            18.7311370    0.033494604338
     17   S      40             2.8253944    0.234726953484
     17   S      41             0.6401217    0.813757326146

     18   S      42             0.1612778    1.000000000000

 H         

     19   S      43            18.7311370    0.033494604338
     19   S      44             2.8253944    0.234726953484
     19   S      45             0.6401217    0.813757326146

     20   S      46             0.1612778    1.000000000000

 C         

     21   S      47          3047.5248800    0.001834737132
     21   S      48           457.3695180    0.014037322813
     21   S      49           103.9486850    0.068842622264
     21   S      50            29.2101553    0.232184443216
     21   S      51             9.2866630    0.467941348435
     21   S      52             3.1639270    0.362311985337

     22   L      53             7.8682723   -0.119332419775    0.068999066591
     22   L      54             1.8812885   -0.160854151696    0.316423960957
     22   L      55             0.5442493    1.143456437840    0.744308290898

     23   L      56             0.1687145    1.000000000000    1.000000000000

     24   D      57             0.8000000    1.000000000000

 H         

     25   S      58            18.7311370    0.033494604338
     25   S      59             2.8253944    0.234726953484
     25   S      60             0.6401217    0.813757326146

     26   S      61             0.1612778    1.000000000000

 H         

     27   S      62            18.7311370    0.033494604338
     27   S      63             2.8253944    0.234726953484
     27   S      64             0.6401217    0.813757326146

     28   S      65             0.1612778    1.000000000000

 C         

     29   S      66          3047.5248800    0.001834737132
     29   S      67           457.3695180    0.014037322813
     29   S      68           103.9486850    0.068842622264
     29   S      69            29.2101553    0.232184443216
     29   S      70             9.2866630    0.467941348435
     29   S      71             3.1639270    0.362311985337

     30   L      72             7.8682723   -0.119332419775    0.068999066591
     30   L      73             1.8812885   -0.160854151696    0.316423960957
     30   L      74             0.5442493    1.143456437840    0.744308290898

     31   L      75             0.1687145    1.000000000000    1.000000000000

     32   D      76             0.8000000    1.000000000000

 H         

     33   S      77            18.7311370    0.033494604338
     33   S      78             2.8253944    0.234726953484
     33   S      79             0.6401217    0.813757326146

     34   S      80             0.1612778    1.000000000000

 H         

     35   S      81            18.7311370    0.033494604338
     35   S      82             2.8253944    0.234726953484
     35   S      83             0.6401217    0.813757326146

     36   S      84             0.1612778    1.000000000000

 C         

     37   S      85          3047.5248800    0.001834737132
     37   S      86           457.3695180    0.014037322813
     37   S      87           103.9486850    0.068842622264
     37   S      88            29.2101553    0.232184443216
     37   S      89             9.2866630    0.467941348435
     37   S      90             3.1639270    0.362311985337

     38   L      91             7.8682723   -0.119332419775    0.068999066591
     38   L      92             1.8812885   -0.160854151696    0.316423960957
     38   L      93             0.5442493    1.143456437840    0.744308290898

     39   L      94             0.1687145    1.000000000000    1.000000000000

     40   D      95             0.8000000    1.000000000000

 H         

     41   S      96            18.7311370    0.033494604338
     41   S      97             2.8253944    0.234726953484
     41   S      98             0.6401217    0.813757326146

     42   S      99             0.1612778    1.000000000000

 H         

     43   S     100            18.7311370    0.033494604338
     43   S     101             2.8253944    0.234726953484
     43   S     102             0.6401217    0.813757326146

     44   S     103             0.1612778    1.000000000000

 TOTAL NUMBER OF BASIS SET SHELLS             =   44
 NUMBER OF CARTESIAN GAUSSIAN BASIS FUNCTIONS =   99
 NUMBER OF ELECTRONS                          =   42
 CHARGE OF MOLECULE                           =    0
 SPIN MULTIPLICITY                            =    1
 NUMBER OF OCCUPIED ORBITALS (ALPHA)          =   21
 NUMBER OF OCCUPIED ORBITALS (BETA )          =   21
 TOTAL NUMBER OF ATOMS                        =   17
 THE NUCLEAR REPULSION ENERGY IS      187.4346073654

     $CONTRL OPTIONS
     ---------------
 SCFTYP=RHF          RUNTYP=OPTIMIZE     EXETYP=RUN     
 MPLEVL=       0     CITYP =NONE         CCTYP =NONE         VBTYP =NONE    
 DFTTYP=NONE         TDDFT =NONE    
 MULT  =       1     ICHARG=       0     NZVAR =      45     COORD =PRINAXIS
 PP    =NONE         RELWFN=NONE         LOCAL =NONE         NUMGRD=       F
 ISPHER=       0     NOSYM =       0     MAXIT =     200     UNITS =ANGS    
 PLTORB=       F     MOLPLT=       F     AIMPAC=       F     FRIEND=        
 NPRINT=       7     IREST =       0     GEOM  =INPUT   
 NORMF =       0     NORMP =       0     ITOL  =      20     ICUT  =       9
 INTTYP=BEST         GRDTYP=BEST         QMTTOL= 1.0E-06

     $SYSTEM OPTIONS
     ---------------
  REPLICATED MEMORY=   110000000 WORDS (ON EVERY NODE).
 DISTRIBUTED MEMDDI=           0 MILLION WORDS IN AGGREGATE,
 MEMDDI DISTRIBUTED OVER   8 PROCESSORS IS           0 WORDS/PROCESSOR.
 TOTAL MEMORY REQUESTED ON EACH PROCESSOR=   110000000 WORDS.
 TIMLIM=       50000.00 MINUTES, OR      34.7 DAYS.
 PARALL= T  BALTYP=  DLB     KDIAG=    0  COREFL= F
 MXSEQ2=     300 MXSEQ3=     150

          ----------------
          PROPERTIES INPUT
          ----------------

     MOMENTS            FIELD           POTENTIAL          DENSITY
 IEMOM =       1   IEFLD =       0   IEPOT =       0   IEDEN =       0
 WHERE =COMASS     WHERE =NUCLEI     WHERE =NUCLEI     WHERE =NUCLEI  
 OUTPUT=BOTH       OUTPUT=BOTH       OUTPUT=BOTH       OUTPUT=BOTH    
 IEMINT=       0   IEFINT=       0                     IEDINT=       0
                                                       MORB  =       0
          EXTRAPOLATION IN EFFECT
          SOSCF IN EFFECT
 ORBITAL PRINTING OPTION: NPREO=     1    99     2     1

     -------------------------------
     INTEGRAL TRANSFORMATION OPTIONS
     -------------------------------
     NWORD  =            0
     CUTOFF = 1.0E-09     MPTRAN =       0
     DIRTRF =       F     AOINTS =DUP     

          ----------------------
          INTEGRAL INPUT OPTIONS
          ----------------------
 NOPK  =       1 NORDER=       0 SCHWRZ=       T


 -----------------------------------------------
  STATISTICS ON AUTOMATIC COORDINATE GENERATION 
 -----------------------------------------------
  NUMBER OF USER SPECIFIED BONDS                             0
  NUMBER OF BONDS                                           16
  NUMBER OF ANGLES                                          30
  NUMBER OF TORSIONS                                        36
  NUMBER OF EXTRA COORD.                                     0
  NUMBER OF EXTRA COORD. FOR CONSTRAINTS                     0
  NUMBER OF CONSTRAINED COORD.                               0

  TOTAL NUMBER OF PRIMITIVES                                82
 -----------------------------------------------

   --- ENCODED Z MATRIX ---
 COORD  TYPE   I   J   K   L   M   N
    1      1    1   4
    2      1    1  15
    3      1    1   2
    4      1    1   3
    5      1    5   8
    6      1    5   7
    7      1    5   9
    8      1    5   6
    9      1    9  12
   10      1    9  11
   11      1    9  10
   12      1   12  15
   13      1   12  14
   14      1   12  13
   15      1   15  16
   16      1   15  17
   17      2    1  15  17
   18      2    1  15  16
   19      2    1  15  12
   20      2    2   1   3
   21      2    2   1   4
   22      2    2   1  15
   23      2    3   1   4
   24      2    3   1  15
   25      2    4   1  15
   26      2    5   9  10
   27      2    5   9  11
   28      2    5   9  12
   29      2    6   5   9
   30      2    6   5   7
   31      2    6   5   8
   32      2    7   5   9
   33      2    7   5   8
   34      2    8   5   9
   35      2    9  12  13
   36      2    9  12  14
   37      2    9  12  15
   38      2   10   9  11
   39      2   10   9  12
   40      2   11   9  12
   41      2   12  15  17
   42      2   12  15  16
   43      2   13  12  14
   44      2   13  12  15
   45      2   14  12  15
   46      2   16  15  17
   47      3    1  15  12  13
   48      3    1  15  12  14
   49      3    1  15  12   9
   50      3    2   1  15  16
   51      3    2   1  15  12
   52      3    2   1  15  17
   53      3    3   1  15  17
   54      3    3   1  15  16
   55      3    3   1  15  12
   56      3    4   1  15  12
   57      3    4   1  15  16
   58      3    4   1  15  17
   59      3    5   9  12  15
   60      3    5   9  12  13
   61      3    5   9  12  14
   62      3    6   5   9  12
   63      3    6   5   9  11
   64      3    6   5   9  10
   65      3    7   5   9  12
   66      3    7   5   9  11
   67      3    7   5   9  10
   68      3    8   5   9  12
   69      3    8   5   9  11
   70      3    8   5   9  10
   71      3    9  12  15  17
   72      3    9  12  15  16
   73      3   10   9  12  15
   74      3   10   9  12  14
   75      3   10   9  12  13
   76      3   11   9  12  15
   77      3   11   9  12  14
   78      3   11   9  12  13
   79      3   13  12  15  17
   80      3   13  12  15  16
   81      3   14  12  15  17
   82      3   14  12  15  16

          INDEP./SYM. INTERNAL COORDINATES
          --------------------------------
 CRD  1=  -0.1567 ( 12)  0.1192 ( 17)  0.1566 ( 18) -0.4579 ( 19)  0.2845 ( 28)
           0.1650 ( 35)  0.2029 ( 36) -0.5594 ( 37) -0.1133 ( 39) -0.1051 ( 40)
           0.1138 ( 41)  0.1679 ( 42)  0.1280 ( 44)  0.1889 ( 45)
 CRD  2=  -0.1217 (  7) -0.1041 (  9) -0.1816 ( 12)  0.1473 ( 17)  0.1435 ( 18)
          -0.4615 ( 19)  0.2073 ( 27) -0.5120 ( 28) -0.1486 ( 34)  0.2170 ( 37)
           0.1788 ( 39)  0.1499 ( 40)  0.1847 ( 41) -0.1345 ( 44)  0.1618 ( 59)
           0.1341 ( 76)
 CRD  3=   0.2688 (  7)  0.2901 (  9)  0.2396 ( 12) -0.2395 ( 19)  0.1124 ( 25)
          -0.2268 ( 26)  0.3758 ( 28)  0.2098 ( 32) -0.1274 ( 36)  0.3409 ( 37)
          -0.1273 ( 40)  0.1495 ( 41) -0.2565 ( 44)  0.1276 ( 48)  0.2090 ( 59)
           0.1015 ( 60)  0.1395 ( 73)  0.1205 ( 76)
 CRD  4=  -0.1141 (  2) -0.1680 ( 17)  0.2177 ( 18) -0.1100 ( 19)  0.1299 ( 22)
          -0.2641 ( 24) -0.1135 ( 27)  0.1021 ( 34) -0.2715 ( 35)  0.1738 ( 36)
           0.1890 ( 37) -0.1627 ( 39)  0.1372 ( 40)  0.1898 ( 41) -0.2041 ( 45)
          -0.2043 ( 47) -0.1726 ( 48) -0.3725 ( 49) -0.1100 ( 51) -0.1232 ( 62)
          -0.1514 ( 65) -0.1428 ( 68) -0.2200 ( 71) -0.2326 ( 72)
 CRD  5=  -0.4140 (  2)  0.2197 (  9) -0.1174 ( 13)  0.1489 ( 17) -0.1892 ( 19)
           0.1423 ( 20)  0.1146 ( 21) -0.2321 ( 22) -0.1430 ( 27) -0.1041 ( 31)
          -0.2721 ( 32)  0.2855 ( 34)  0.1710 ( 42) -0.1369 ( 45)  0.1564 ( 49)
          -0.2891 ( 59) -0.1960 ( 60) -0.1475 ( 61)  0.1792 ( 62)  0.1158 ( 71)
          -0.1223 ( 73) -0.1147 ( 76)
 CRD  6=  -0.3740 (  2) -0.1638 (  7) -0.2356 (  9) -0.3488 ( 12) -0.1172 ( 15)
          -0.1048 ( 17)  0.2040 ( 21) -0.1068 ( 22)  0.1126 ( 23)  0.1536 ( 24)
          -0.3565 ( 25) -0.1309 ( 26)  0.1741 ( 28) -0.3056 ( 29)  0.1261 ( 31)
           0.1858 ( 32)  0.1338 ( 37)  0.1019 ( 41) -0.1383 ( 42) -0.1150 ( 45)
          -0.1412 ( 55) -0.1435 ( 56)
 CRD  7=  -0.3186 (  2)  0.1398 (  7)  0.3535 (  9) -0.1293 ( 18)  0.2001 ( 22)
           0.2028 ( 23) -0.1991 ( 24) -0.2676 ( 25)  0.1263 ( 27)  0.3035 ( 29)
          -0.1850 ( 30)  0.1732 ( 32) -0.3597 ( 34)  0.1131 ( 36) -0.1003 ( 37)
           0.1203 ( 42)  0.1125 ( 51)  0.1300 ( 56)  0.1324 ( 61)
 CRD  8=   0.6046 (  7) -0.3091 (  9) -0.1035 ( 22)  0.1480 ( 24)  0.1926 ( 26)
           0.1853 ( 27)  0.2649 ( 29) -0.1831 ( 30) -0.2042 ( 31) -0.1616 ( 33)
           0.1536 ( 34) -0.1391 ( 39) -0.1407 ( 40)  0.1010 ( 67) -0.1037 ( 69)
           0.1061 ( 73)  0.1019 ( 74) -0.1002 ( 77) -0.1061 ( 78)
 CRD  9=   0.1614 (  2)  0.2334 (  9) -0.2272 ( 12)  0.1938 ( 17) -0.2532 ( 22)
          -0.1560 ( 23)  0.4306 ( 24)  0.1234 ( 26) -0.1799 ( 27)  0.1667 ( 29)
          -0.1690 ( 34)  0.1999 ( 36) -0.2089 ( 39)  0.2443 ( 40) -0.1298 ( 41)
          -0.1272 ( 45)  0.1504 ( 48) -0.1917 ( 62) -0.1795 ( 65) -0.1982 ( 68)
          -0.1514 ( 71)
 CRD 10=  -0.2601 (  2) -0.1153 (  3) -0.1389 (  9)  0.4777 ( 12) -0.2000 ( 18)
           0.1673 ( 20)  0.1380 ( 21) -0.4098 ( 22)  0.1580 ( 32) -0.1572 ( 34)
          -0.2063 ( 35)  0.1772 ( 42)  0.2450 ( 44)  0.1081 ( 47) -0.1331 ( 72)
           0.1248 ( 79) -0.1157 ( 82)
 CRD 11=  -0.1449 (  6) -0.1349 (  7)  0.2494 ( 12)  0.1527 ( 13) -0.1915 ( 17)
          -0.1203 ( 20)  0.1351 ( 21)  0.2705 ( 24) -0.3279 ( 25)  0.2545 ( 29)
           0.1026 ( 30) -0.1435 ( 31) -0.4636 ( 32)  0.1748 ( 33)  0.2485 ( 41)
           0.1395 ( 45) -0.1305 ( 55) -0.1116 ( 56)  0.1063 ( 59)  0.1184 ( 76)
 CRD 12=  -0.1196 (  3) -0.1061 ( 12)  0.1543 ( 18)  0.1053 ( 19)  0.1421 ( 20)
          -0.3188 ( 22) -0.1559 ( 23)  0.3379 ( 25) -0.2206 ( 26)  0.1722 ( 27)
           0.2303 ( 29)  0.1346 ( 33) -0.2162 ( 34)  0.1396 ( 36)  0.1936 ( 39)
          -0.2554 ( 40) -0.2474 ( 42) -0.1808 ( 45) -0.1021 ( 47) -0.1199 ( 51)
          -0.1050 ( 56)  0.1161 ( 61)  0.1341 ( 62)  0.1698 ( 65)  0.1441 ( 68)
          -0.1207 ( 73) -0.1178 ( 76)
 CRD 13=  -0.1307 (  2) -0.1185 (  5) -0.1978 (  9) -0.1462 ( 11) -0.1029 ( 13)
          -0.1459 ( 15) -0.1010 ( 17)  0.1469 ( 20) -0.2617 ( 24)  0.1680 ( 25)
           0.1690 ( 26) -0.2244 ( 27)  0.1576 ( 28)  0.2541 ( 29)  0.1659 ( 33)
          -0.2574 ( 34)  0.1757 ( 35) -0.2109 ( 36) -0.2822 ( 39) -0.2157 ( 44)
           0.1845 ( 45)  0.1052 ( 49) -0.1283 ( 60) -0.1193 ( 61) -0.1129 ( 68)
           0.1330 ( 71)  0.1119 ( 73)  0.1085 ( 76)
 CRD 14=   0.3161 (  9)  0.2128 ( 10)  0.1124 ( 11)  0.1627 ( 13)  0.1248 ( 14)
          -0.1413 ( 16) -0.2163 ( 17)  0.1530 ( 19)  0.1270 ( 20) -0.2043 ( 22)
           0.1476 ( 25) -0.2063 ( 28) -0.2198 ( 29)  0.1087 ( 32) -0.1573 ( 33)
           0.2105 ( 34)  0.2715 ( 35) -0.1876 ( 37) -0.1211 ( 38)  0.1913 ( 40)
           0.1040 ( 41) -0.1739 ( 42) -0.1060 ( 43) -0.1544 ( 44)  0.1691 ( 45)
          -0.1250 ( 47)  0.1136 ( 73)  0.1111 ( 76)
 CRD 15=   0.1602 (  5) -0.1716 (  6)  0.1539 ( 10) -0.1982 ( 11) -0.1359 ( 12)
          -0.2161 ( 14) -0.1405 ( 15) -0.1311 ( 16) -0.2253 ( 18)  0.1638 ( 19)
           0.1322 ( 20) -0.1805 ( 24)  0.1599 ( 25)  0.1538 ( 30) -0.1699 ( 31)
          -0.3000 ( 32)  0.2618 ( 34) -0.1342 ( 35)  0.1195 ( 36) -0.2049 ( 41)
           0.1213 ( 47)  0.1052 ( 48)  0.2336 ( 59)  0.1548 ( 60)  0.1847 ( 61)
          -0.1018 ( 62) -0.1073 ( 71) -0.1549 ( 72)  0.1060 ( 73)
 CRD 16=  -0.1404 (  3)  0.1659 (  4) -0.2444 ( 14)  0.4035 ( 15) -0.4978 ( 16)
           0.1121 ( 21) -0.1433 ( 22)  0.1250 ( 24) -0.2114 ( 36) -0.1106 ( 41)
          -0.1340 ( 44)  0.1273 ( 45) -0.1797 ( 47) -0.2611 ( 48) -0.1497 ( 49)
           0.1807 ( 51)  0.1832 ( 55)  0.2239 ( 56)
 CRD 17=   0.3973 ( 10) -0.4163 ( 11) -0.3961 ( 13)  0.3920 ( 14)  0.1496 ( 15)
           0.1596 ( 18)  0.1437 ( 60)  0.1318 ( 61) -0.1433 ( 62) -0.1221 ( 65)
          -0.1212 ( 68)  0.1448 ( 71)  0.1852 ( 72) -0.1328 ( 73) -0.1255 ( 76)
 CRD 18=   0.4823 (  1)  0.1677 (  2)  0.5058 (  3)  0.5046 (  4)  0.1882 ( 20)
           0.1918 ( 21) -0.1746 ( 22)  0.1996 ( 23) -0.1794 ( 24) -0.1902 ( 25)
 CRD 19=   0.5054 (  5)  0.5037 (  6)  0.1692 (  7)  0.4853 (  8) -0.1917 ( 29)
           0.1966 ( 30)  0.1959 ( 31) -0.1757 ( 32)  0.1829 ( 33) -0.1749 ( 34)
 CRD 20=   0.1256 ( 10) -0.1186 ( 11)  0.1138 ( 14) -0.1080 ( 15)  0.1561 ( 16)
           0.1688 ( 17) -0.1638 ( 18) -0.1596 ( 26)  0.1648 ( 27)  0.1695 ( 35)
          -0.1578 ( 36)  0.1141 ( 39) -0.1163 ( 40) -0.1283 ( 41)  0.1204 ( 42)
          -0.1684 ( 44)  0.1524 ( 45) -0.1171 ( 50) -0.1204 ( 52) -0.1167 ( 53)
          -0.1134 ( 54) -0.1173 ( 57) -0.1206 ( 58) -0.1064 ( 63) -0.1059 ( 64)
          -0.1084 ( 66) -0.1079 ( 67) -0.1082 ( 69) -0.1077 ( 70) -0.1273 ( 71)
          -0.1266 ( 72) -0.1225 ( 73) -0.2029 ( 74) -0.2105 ( 75) -0.1266 ( 76)
          -0.2070 ( 77) -0.2146 ( 78) -0.2203 ( 79) -0.2196 ( 80) -0.2161 ( 81)
          -0.2153 ( 82)
 CRD 21=   0.5150 (  1) -0.2270 (  3) -0.2517 (  4) -0.1945 (  5) -0.1496 (  6)
           0.3709 (  8) -0.1041 ( 10) -0.1082 ( 11) -0.1320 ( 15) -0.1357 ( 16)
          -0.2652 ( 20)  0.1368 ( 21)  0.1207 ( 23)  0.1035 ( 30) -0.1918 ( 33)
          -0.1524 ( 50) -0.1380 ( 51) -0.1301 ( 52)  0.1444 ( 53)  0.1221 ( 54)
           0.1364 ( 55)  0.1028 ( 65)  0.1123 ( 66) -0.1073 ( 70)
 CRD 22=  -0.3786 (  1)  0.1502 (  3)  0.2026 (  4) -0.2437 (  5) -0.2355 (  6)
           0.5116 (  8) -0.1395 ( 10) -0.1381 ( 11)  0.1933 ( 20) -0.1086 ( 21)
           0.1308 ( 30)  0.1256 ( 31) -0.2658 ( 33)  0.1126 ( 50)  0.1051 ( 51)
          -0.1021 ( 53)  0.1383 ( 65)  0.1531 ( 66)  0.1269 ( 67) -0.1361 ( 68)
          -0.1213 ( 69) -0.1475 ( 70)
 CRD 23=  -0.5485 (  3)  0.5171 (  4)  0.1228 (  5) -0.1028 (  6) -0.2783 ( 21)
           0.2930 ( 23) -0.2187 ( 56) -0.2168 ( 57) -0.2120 ( 58)
 CRD 24=   0.1039 (  3) -0.1200 (  4)  0.5272 (  5) -0.5497 (  6) -0.2815 ( 30)
           0.2936 ( 31)  0.2208 ( 62)  0.2106 ( 63)  0.2095 ( 64) -0.1024 ( 69)
          -0.1035 ( 70)
 CRD 25=   0.1144 (  3)  0.1047 (  5) -0.1106 (  8) -0.3591 ( 10) -0.3614 ( 11)
           0.3730 ( 13)  0.4152 ( 14) -0.2427 ( 15) -0.3352 ( 16) -0.1216 ( 38)
           0.1400 ( 43) -0.1107 ( 46)  0.1226 ( 74) -0.1075 ( 78)  0.1207 ( 80)
          -0.1101 ( 81)
 CRD 26=  -0.1005 (  6)  0.1038 (  8)  0.4353 ( 10)  0.4304 ( 11)  0.1569 ( 14)
          -0.3730 ( 15) -0.3880 ( 16)  0.1803 ( 38) -0.1526 ( 46)  0.1006 ( 67)
          -0.1183 ( 69)  0.1005 ( 80) -0.1045 ( 81)
 CRD 27=   0.1052 (  4)  0.1006 (  9) -0.1740 ( 10) -0.1761 ( 11) -0.4800 ( 13)
          -0.3916 ( 14) -0.4334 ( 15) -0.2525 ( 16) -0.1901 ( 43) -0.1406 ( 46)
           0.1148 ( 52) -0.1170 ( 77) -0.1507 ( 79)  0.1269 ( 82)
 CRD 28=   0.3219 ( 13) -0.2579 ( 14) -0.1021 ( 15)  0.1054 ( 16)  0.1084 ( 18)
           0.1210 ( 41) -0.1147 ( 42)  0.1210 ( 47)  0.1974 ( 50)  0.1128 ( 51)
           0.1926 ( 52)  0.1968 ( 53)  0.2016 ( 54)  0.1170 ( 55)  0.1677 ( 57)
           0.1629 ( 58) -0.1189 ( 60) -0.1126 ( 61) -0.1065 ( 62) -0.1487 ( 63)
          -0.1498 ( 64) -0.1271 ( 65) -0.1694 ( 66) -0.1704 ( 67) -0.1263 ( 68)
          -0.1685 ( 69) -0.1696 ( 70) -0.1722 ( 74) -0.1785 ( 75) -0.1676 ( 77)
          -0.1739 ( 78)  0.1487 ( 79)  0.1589 ( 80)  0.1169 ( 81)  0.1270 ( 82)
 CRD 29=   0.3555 ( 10) -0.3542 ( 11)  0.2008 ( 13) -0.2016 ( 14) -0.1301 ( 15)
           0.1187 ( 16)  0.1748 ( 62)  0.2667 ( 63)  0.2625 ( 64)  0.1606 ( 65)
           0.2525 ( 66)  0.2484 ( 67)  0.1631 ( 68)  0.2550 ( 69)  0.2508 ( 70)
          -0.1158 ( 74) -0.1111 ( 75) -0.1092 ( 77) -0.1044 ( 78)
 CRD 30=  -0.1472 ( 10)  0.1423 ( 11) -0.1775 ( 13)  0.1817 ( 14) -0.2978 ( 15)
           0.2958 ( 16) -0.1112 ( 36) -0.1115 ( 47) -0.1884 ( 48)  0.2176 ( 50)
           0.1664 ( 51)  0.1901 ( 52)  0.1896 ( 53)  0.2170 ( 54)  0.1659 ( 55)
           0.2049 ( 56)  0.2561 ( 57)  0.2286 ( 58) -0.1061 ( 71) -0.1419 ( 72)
           0.1007 ( 77) -0.1241 ( 79) -0.1599 ( 80) -0.2010 ( 81) -0.2368 ( 82)
 CRD 31=  -0.1325 (  1)  0.1493 (  5)  0.1413 (  6)  0.2675 (  8)  0.1157 ( 18)
           0.1158 ( 21) -0.1987 ( 26) -0.2150 ( 27)  0.2032 ( 29) -0.2154 ( 30)
          -0.2236 ( 31)  0.1634 ( 32) -0.1200 ( 33)  0.1603 ( 34) -0.1124 ( 35)
          -0.1374 ( 36)  0.1642 ( 39)  0.1758 ( 40) -0.1106 ( 41) -0.1144 ( 42)
           0.1696 ( 44)  0.1735 ( 45) -0.1412 ( 52) -0.1024 ( 53) -0.1107 ( 58)
           0.1205 ( 60) -0.1257 ( 67)  0.1064 ( 69) -0.1080 ( 73) -0.2014 ( 74)
           0.1507 ( 76)  0.2562 ( 78)  0.1151 ( 80)
 CRD 32=   0.2946 (  1) -0.1955 (  2)  0.2036 (  3)  0.2055 (  4)  0.1024 (  6)
           0.1377 (  8) -0.1984 ( 12) -0.1740 ( 17) -0.1645 ( 18) -0.1948 ( 20)
          -0.2684 ( 21)  0.2169 ( 22) -0.2652 ( 23)  0.2206 ( 24)  0.2459 ( 25)
           0.1132 ( 29) -0.1339 ( 30) -0.1106 ( 31)  0.1006 ( 34)  0.1499 ( 41)
           0.1429 ( 42)  0.1139 ( 71) -0.1202 ( 72) -0.1160 ( 75)  0.1684 ( 79)
           0.1246 ( 81) -0.1095 ( 82)
 CRD 33=  -0.1719 (  2)  0.1611 (  4) -0.2099 (  5) -0.1922 (  6)  0.3959 (  7)
          -0.1084 (  8)  0.1333 (  9) -0.1361 ( 12) -0.1686 ( 15) -0.1287 ( 20)
          -0.1018 ( 23) -0.1701 ( 29)  0.1561 ( 30)  0.1693 ( 31) -0.1761 ( 32)
           0.2356 ( 33) -0.1824 ( 34) -0.1704 ( 35) -0.1810 ( 36)  0.1684 ( 44)
           0.1474 ( 45) -0.1195 ( 48) -0.1815 ( 52) -0.1305 ( 53) -0.1100 ( 58)
          -0.1098 ( 67)  0.1212 ( 75)  0.1014 ( 78)  0.1586 ( 79)  0.1134 ( 80)
 CRD 34=   0.1890 (  3) -0.1748 (  4) -0.1711 (  6)  0.1390 (  7) -0.1861 ( 10)
           0.1957 ( 11) -0.1428 ( 13)  0.2579 ( 14)  0.1661 ( 15) -0.2654 ( 16)
          -0.1203 ( 21)  0.1620 ( 23) -0.1141 ( 26)  0.1038 ( 30) -0.1275 ( 42)
           0.1439 ( 45)  0.1260 ( 48)  0.1956 ( 50)  0.1184 ( 53)  0.2212 ( 54)
          -0.1525 ( 56) -0.1266 ( 61)  0.1454 ( 66)  0.1984 ( 69)  0.1397 ( 70)
          -0.1151 ( 72) -0.2620 ( 74) -0.1321 ( 75) -0.2294 ( 77)
 CRD 35=  -0.4054 (  2)  0.2342 (  3)  0.1571 (  4)  0.1024 (  6) -0.1503 (  7)
           0.2435 ( 12)  0.1212 ( 13) -0.1010 ( 16)  0.1540 ( 17)  0.1138 ( 18)
          -0.2628 ( 20)  0.1076 ( 22)  0.1014 ( 24)  0.1144 ( 25) -0.1358 ( 33)
          -0.1131 ( 39) -0.1065 ( 40) -0.1592 ( 41) -0.1795 ( 42) -0.1166 ( 43)
          -0.1792 ( 52)  0.2653 ( 54)  0.1103 ( 55)  0.1322 ( 57) -0.1209 ( 58)
          -0.1089 ( 63)  0.1327 ( 67) -0.1693 ( 69)  0.1037 ( 75) -0.1521 ( 79)
 CRD 36=   0.1416 (  3) -0.1327 (  4) -0.2793 (  5)  0.1516 (  7)  0.1339 (  8)
          -0.2633 (  9)  0.2199 ( 10) -0.1297 ( 11)  0.1236 ( 13)  0.1813 ( 15)
          -0.1211 ( 16) -0.1297 ( 21) -0.1581 ( 30)  0.1005 ( 31)  0.1591 ( 33)
           0.1637 ( 39)  0.1190 ( 50)  0.1526 ( 52)  0.1328 ( 53) -0.1229 ( 56)
           0.1443 ( 62)  0.1102 ( 63) -0.1198 ( 65) -0.1539 ( 66) -0.3071 ( 67)
          -0.1324 ( 70) -0.1228 ( 71)  0.1134 ( 74)  0.1194 ( 75)  0.1357 ( 77)
           0.1416 ( 78) -0.2128 ( 79) -0.1623 ( 80) -0.1035 ( 81)
 CRD 37=  -0.2104 (  2)  0.1476 (  4) -0.2689 (  6)  0.2373 (  8) -0.2423 (  9)
           0.2031 ( 11)  0.2514 ( 12) -0.2235 ( 31)  0.1648 ( 33)  0.1432 ( 35)
          -0.1710 ( 38)  0.1423 ( 40) -0.1337 ( 44)  0.1037 ( 61) -0.1739 ( 62)
          -0.1789 ( 64) -0.1133 ( 65) -0.1184 ( 67)  0.1409 ( 68)  0.3138 ( 69)
           0.1359 ( 70)  0.1481 ( 72)  0.1210 ( 74) -0.1020 ( 76) -0.1653 ( 78)
           0.1174 ( 82)
 CRD 38=   0.2774 (  1) -0.2136 (  2) -0.1026 (  4)  0.1545 (  5) -0.1147 (  6)
           0.1566 (  7) -0.1101 (  8) -0.1173 ( 10) -0.1320 ( 12)  0.1944 ( 13)
           0.1564 ( 15)  0.1170 ( 16)  0.1476 ( 20) -0.1431 ( 21) -0.1221 ( 23)
           0.1648 ( 30)  0.1209 ( 38) -0.1259 ( 43) -0.2225 ( 46)  0.1454 ( 51)
           0.2366 ( 52) -0.2068 ( 54) -0.1373 ( 55)  0.1077 ( 60) -0.1556 ( 62)
          -0.1393 ( 63)  0.1463 ( 67)  0.1662 ( 72) -0.1047 ( 73) -0.1079 ( 74)
           0.1746 ( 78) -0.2296 ( 79) -0.1315 ( 81)  0.1182 ( 82)
 CRD 39=  -0.1306 (  1) -0.1241 (  3)  0.2237 (  4)  0.3064 (  7) -0.2784 (  9)
          -0.1045 ( 10)  0.1383 ( 14) -0.1060 ( 18)  0.1910 ( 21) -0.1190 ( 24)
          -0.1478 ( 26) -0.1224 ( 27)  0.1274 ( 35)  0.1746 ( 36)  0.1556 ( 38)
          -0.1535 ( 43)  0.1950 ( 48) -0.1476 ( 50) -0.1307 ( 52)  0.1977 ( 56)
           0.1493 ( 57)  0.1661 ( 58) -0.1434 ( 73) -0.1792 ( 74) -0.1603 ( 75)
           0.1454 ( 76)  0.1097 ( 77)  0.1285 ( 78) -0.1464 ( 80)  0.2138 ( 81)
           0.1312 ( 82)
 CRD 40=  -0.1780 (  1)  0.2244 (  3)  0.1919 (  5)  0.1307 (  7) -0.1779 (  8)
          -0.2040 ( 14) -0.1279 ( 17) -0.1197 ( 20) -0.1343 ( 22)  0.1868 ( 23)
          -0.1553 ( 27)  0.1738 ( 30) -0.1087 ( 33) -0.1327 ( 34)  0.1167 ( 40)
           0.1504 ( 43) -0.1057 ( 45) -0.1605 ( 48) -0.1218 ( 50)  0.2189 ( 53)
           0.1122 ( 54)  0.1639 ( 55) -0.1462 ( 56) -0.1980 ( 57) -0.1092 ( 59)
          -0.1001 ( 60)  0.1045 ( 61) -0.1240 ( 62) -0.1877 ( 64)  0.1531 ( 65)
           0.1946 ( 66) -0.1349 ( 70) -0.1125 ( 73)  0.1012 ( 74) -0.1033 ( 75)
           0.2170 ( 77) -0.1420 ( 82)
 CRD 41=  -0.1357 (  1)  0.1562 (  2) -0.1976 (  6)  0.1899 (  8)  0.1438 (  9)
          -0.1109 ( 11) -0.2626 ( 12)  0.1819 ( 13) -0.1092 ( 17) -0.1128 ( 18)
           0.1565 ( 26) -0.1291 ( 29) -0.1623 ( 31)  0.1444 ( 32)  0.1332 ( 33)
          -0.1125 ( 39) -0.1100 ( 40)  0.1128 ( 41)  0.1126 ( 42) -0.1436 ( 43)
           0.1232 ( 44) -0.1050 ( 47) -0.1388 ( 50)  0.1660 ( 53)  0.1015 ( 55)
          -0.1309 ( 59) -0.1229 ( 61) -0.2462 ( 63) -0.2267 ( 66)  0.1941 ( 68)
           0.2612 ( 70)  0.1694 ( 75)  0.1563 ( 78) -0.1663 ( 80)
 CRD 42=   0.1480 (  1)  0.1150 (  2) -0.1115 (  4) -0.1278 (  6) -0.1429 ( 11)
           0.2432 ( 12) -0.1839 ( 15) -0.1387 ( 16) -0.1925 ( 19)  0.1294 ( 20)
          -0.1635 ( 25) -0.1230 ( 45)  0.2495 ( 46)  0.2887 ( 50)  0.1549 ( 51)
          -0.2965 ( 53) -0.1018 ( 55)  0.1275 ( 57) -0.2011 ( 58) -0.1359 ( 59)
          -0.1322 ( 60) -0.1918 ( 63)  0.1341 ( 68)  0.1395 ( 71) -0.1137 ( 72)
           0.1657 ( 77)  0.1086 ( 79) -0.1447 ( 80)  0.1236 ( 81) -0.1297 ( 82)
 CRD 43=  -0.1124 (  3)  0.1641 (  5) -0.1349 (  7) -0.1122 (  8) -0.1463 (  9)
           0.2236 ( 10)  0.1018 ( 13) -0.1434 ( 16) -0.1039 ( 18)  0.1955 ( 28)
           0.1339 ( 29)  0.1036 ( 30) -0.1058 ( 33) -0.1217 ( 34) -0.2236 ( 38)
          -0.1121 ( 43)  0.1079 ( 48) -0.1161 ( 55)  0.1781 ( 57)  0.1160 ( 58)
          -0.1284 ( 59) -0.1593 ( 61) -0.2703 ( 64)  0.1937 ( 65)  0.2369 ( 66)
          -0.2332 ( 70)  0.1192 ( 73)  0.2695 ( 75) -0.1458 ( 76) -0.1768 ( 77)
          -0.1667 ( 80)
 CRD 44=  -0.1008 (  3)  0.1305 (  4)  0.1826 (  9) -0.1257 ( 11) -0.1430 ( 13)
           0.2075 ( 15) -0.1317 ( 16)  0.1435 ( 17) -0.1077 ( 18)  0.1062 ( 22)
          -0.1253 ( 24) -0.1811 ( 37) -0.1571 ( 42)  0.1638 ( 43)  0.3146 ( 47)
           0.1216 ( 49) -0.2534 ( 51) -0.2140 ( 55)  0.1852 ( 57)  0.2361 ( 58)
          -0.1661 ( 60) -0.1380 ( 63)  0.1145 ( 68) -0.1901 ( 71) -0.1232 ( 75)
           0.1154 ( 76)  0.1465 ( 77)  0.1075 ( 80) -0.2523 ( 81) -0.1477 ( 82)
 CRD 45=  -0.1553 ( 10)  0.1468 ( 11)  0.1428 ( 13) -0.1897 ( 14) -0.1350 ( 16)
          -0.1062 ( 19) -0.1002 ( 26)  0.1043 ( 27)  0.1288 ( 35) -0.1431 ( 36)
          -0.1354 ( 39)  0.1354 ( 40)  0.1190 ( 41)  0.1323 ( 44) -0.1069 ( 45)
           0.2689 ( 49) -0.1102 ( 51) -0.1377 ( 55)  0.1219 ( 57)  0.2165 ( 60)
           0.2481 ( 61)  0.1538 ( 63)  0.1634 ( 64) -0.2155 ( 65) -0.2118 ( 68)
           0.2104 ( 71) -0.2585 ( 73) -0.2492 ( 76) -0.1698 ( 80) -0.2229 ( 82)

 THE DETERMINANT OF THE G MATRIX IS 10**(   -12)


                     --------------------
                     INTERNAL COORDINATES
                     --------------------

                 - - ATOMS - -         COORDINATE      COORDINATE
 NO.   TYPE    I  J  K  L  M  N        (BOHR,RAD)       (ANG,DEG)
 ----------------------------------------------------------------
   1 STRETCH   1  4                     2.0535245       1.0866784
   2 STRETCH   1 15                     2.8909164       1.5298072
   3 STRETCH   1  2                     2.0525565       1.0861662
   4 STRETCH   1  3                     2.0505286       1.0850931
   5 STRETCH   5  8                     2.0521598       1.0859563
   6 STRETCH   5  7                     2.0532810       1.0865496
   7 STRETCH   5  9                     2.8888948       1.5287374
   8 STRETCH   5  6                     2.0521537       1.0859530
   9 STRETCH   9 12                     2.8935290       1.5311897
  10 STRETCH   9 11                     2.0563328       1.0881645
  11 STRETCH   9 10                     2.0540339       1.0869480
  12 STRETCH  12 15                     2.8961683       1.5325864
  13 STRETCH  12 14                     2.0581771       1.0891405
  14 STRETCH  12 13                     2.0579532       1.0890220
  15 STRETCH  15 16                     2.0554330       1.0876884
  16 STRETCH  15 17                     2.0564152       1.0882082
  17 BEND      1 15 17                  1.9093547     109.3979640
  18 BEND      1 15 16                  1.8956315     108.6116826
  19 BEND      1 15 12                  1.9983088     114.4946593
  20 BEND      2  1  3                  1.8806231     107.7517636
  21 BEND      2  1  4                  1.8790418     107.6611619
  22 BEND      2  1 15                  1.9391584     111.1055944
  23 BEND      3  1  4                  1.8732599     107.3298888
  24 BEND      3  1 15                  1.9544929     111.9841927
  25 BEND      4  1 15                  1.9340167     110.8109939
  26 BEND      5  9 10                  1.9026234     109.0122918
  27 BEND      5  9 11                  1.9091806     109.3879887
  28 BEND      5  9 12                  1.9663791     112.6652246
  29 BEND      6  5  9                  1.9419051     111.2629686
  30 BEND      6  5  7                  1.8804845     107.7438239
  31 BEND      6  5  8                  1.8799845     107.7151764
  32 BEND      7  5  9                  1.9396698     111.1348941
  33 BEND      7  5  8                  1.8790121     107.6594629
  34 BEND      8  5  9                  1.9399695     111.1520655
  35 BEND      9 12 13                  1.9067926     109.2511668
  36 BEND      9 12 14                  1.8938929     108.5120696
  37 BEND      9 12 15                  2.0034995     114.7920650
  38 BEND     10  9 11                  1.8562625     106.3560058
  39 BEND     10  9 12                  1.9201050     110.0139142
  40 BEND     11  9 12                  1.9060221     109.2070238
  41 BEND     12 15 17                  1.9082243     109.3332012
  42 BEND     12 15 16                  1.8934619     108.4873742
  43 BEND     13 12 14                  1.8523618     106.1325148
  44 BEND     13 12 15                  1.9076428     109.2998820
  45 BEND     14 12 15                  1.8936162     108.4962166
  46 BEND     16 15 17                  1.8532462     106.1831833
  47 TORSION   1 15 12 13              -0.9964598     -57.0929424
  48 TORSION   1 15 12 14              -3.0090790    -172.4075275
  49 TORSION   1 15 12  9               1.1525884      66.0384488
  50 TORSION   2  1 15 16              -1.1380643     -65.2062828
  51 TORSION   2  1 15 12               0.9808946      56.2011200
  52 TORSION   2  1 15 17               3.1294244     179.3028090
  53 TORSION   3  1 15 17               1.0254574      58.7543804
  54 TORSION   3  1 15 16               3.0411540     174.2452886
  55 TORSION   3  1 15 12              -1.1230724     -64.3473086
  56 TORSION   4  1 15 12               3.0690712     175.8448287
  57 TORSION   4  1 15 16               0.9501123      54.4374259
  58 TORSION   4  1 15 17              -1.0655843     -61.0534823
  59 TORSION   5  9 12 15               3.0786626     176.3943760
  60 TORSION   5  9 12 13              -1.0550191     -60.4481432
  61 TORSION   5  9 12 14               0.9572955      54.8489934
  62 TORSION   6  5  9 12               3.1394841     179.8791914
  63 TORSION   6  5  9 11              -1.0202975     -58.4587382
  64 TORSION   6  5  9 10               1.0027809      57.4551125
  65 TORSION   7  5  9 12              -1.0481092     -60.0522353
  66 TORSION   7  5  9 11               1.0752945      61.6098350
  67 TORSION   7  5  9 10               3.0983728     177.5236858
  68 TORSION   8  5  9 12               1.0443234      59.8353258
  69 TORSION   8  5  9 11              -3.1154582    -178.5026038
  70 TORSION   8  5  9 10              -1.0923798     -62.5887531
  71 TORSION   9 12 15 17              -0.9965504     -57.0981329
  72 TORSION   9 12 15 16              -3.0104473    -172.4859235
  73 TORSION  10  9 12 15              -1.0776794     -61.7464833
  74 TORSION  10  9 12 14               3.0841388     176.7081341
  75 TORSION  10  9 12 13               1.0718241      61.4109975
  76 TORSION  11  9 12 15               0.9534692      54.6297637
  77 TORSION  11  9 12 14              -1.1678979     -66.9156190
  78 TORSION  11  9 12 13               3.1029728     177.7872444
  79 TORSION  13 12 15 17               3.1375867     179.7704759
  80 TORSION  13 12 15 16               1.1236898      64.3826854
  81 TORSION  14 12 15 17               1.1249675      64.4558908
  82 TORSION  14 12 15 16              -0.8889293     -50.9318997

     ------------------------------------------
     THE POINT GROUP IS C1 , NAXIS= 0, ORDER= 1
     ------------------------------------------

     DIMENSIONS OF THE SYMMETRY SUBSPACES ARE
 A   =   99

 ..... DONE SETTING UP THE RUN .....
 CPU     0: STEP CPU TIME=     0.03 TOTAL CPU TIME=        0.0 (    0.0 MIN)
 TOTAL WALL CLOCK TIME=        0.0 SECONDS, CPU UTILIZATION IS  75.00%


          -----------------------------
          STATIONARY POINT LOCATION RUN
          -----------------------------

 OBTAINING INITIAL HESSIAN, HESS=GUESS   
 DIAGONAL GUESS HESSIAN IN INTERNAL COORDS IS
     1  0.3486     2  0.3673     3  0.3490     4  0.3497     5  0.3491
     6  0.3487     7  0.3681     8  0.3491     9  0.3663    10  0.3476
    11  0.3484    12  0.3653    13  0.3469    14  0.3470    15  0.3479
    16  0.3476    17  0.2242    18  0.2242    19  0.2483    20  0.2038
    21  0.2038    22  0.2243    23  0.2038    24  0.2244    25  0.2243
    26  0.2243    27  0.2243    28  0.2485    29  0.2244    30  0.2038
    31  0.2038    32  0.2244    33  0.2038    34  0.2244    35  0.2241
    36  0.2241    37  0.2482    38  0.2036    39  0.2242    40  0.2241
    41  0.2240    42  0.2241    43  0.2035    44  0.2240    45  0.2240
    46  0.2036    47  0.2500    48  0.2500    49  0.2500    50  0.2500
    51  0.2500    52  0.2500    53  0.2500    54  0.2500    55  0.2500
    56  0.2500    57  0.2500    58  0.2500    59  0.2500    60  0.2500
    61  0.2500    62  0.2500    63  0.2500    64  0.2500    65  0.2500
    66  0.2500    67  0.2500    68  0.2500    69  0.2500    70  0.2500
    71  0.2500    72  0.2500    73  0.2500    74  0.2500    75  0.2500
    76  0.2500    77  0.2500    78  0.2500    79  0.2500    80  0.2500
    81  0.2500    82  0.2500
 TRANSFORMING HESSIAN TO SYMMETRY COORDINATES

          PARAMETERS CONTROLLING GEOMETRY SEARCH ARE
          METHOD =QA                  UPHESS =BFGS    
          NNEG   =         0          NFRZ   =         0
          NSTEP  =       200          IFOLOW =         1
          HESS   =GUESS               RESTAR =         F
          IHREP  =         0          HSSEND =         F
          NPRT   =         0          NPUN   =         0
          OPTTOL = 1.000E-06          RMIN   = 1.500E-03
          RMAX   = 1.000E-01          RLIM   = 7.000E-02
          DXMAX  = 3.000E-01          PURIFY =         F
          MOVIE  =         F          TRUPD  =         T
          TRMAX  = 5.000E-01          TRMIN  = 5.000E-02
          ITBMAT =         5          STPT   =         F
          STSTEP = 1.000E-02          PROJCT=          T

 BEGINNING GEOMETRY SEARCH POINT NSERCH=   0 ...

 COORDINATES OF ALL ATOMS ARE (ANGS)
   ATOM   CHARGE       X              Y              Z
 ------------------------------------------------------------
 C           6.0  -2.1298019895  -0.6862092713   0.1764321798
 H           1.0  -2.1259398000  -0.7952605459   1.2571032227
 H           1.0  -1.6797213951  -1.5778319820  -0.2476708741
 H           1.0  -3.1664012098  -0.6609071827  -0.1486706668
 C           6.0   2.4478330464  -0.1655403377   0.1330923645
 H           1.0   3.1042331388  -0.9195503213  -0.2910560333
 H           1.0   2.8262359167   0.8084218857  -0.1648990029
 H           1.0   2.5237904572  -0.2317439956   1.2143640914
 C           6.0   1.0047364113  -0.3619690942  -0.3315858526
 H           1.0   0.6764342333  -1.3605127168  -0.0548471425
 H           1.0   0.9657707561  -0.3167181397  -1.4181106010
 C           6.0   0.0498369018   0.6838047520   0.2507078785
 H           1.0   0.0587416776   0.6126052635   1.3373634531
 H           1.0   0.4328653864   1.6743512410   0.0091838984
 C           6.0  -1.3947625011   0.5853491023  -0.2515470869
 H           1.0  -1.9475098480   1.4465649943   0.1170225239
 H           1.0  -1.4046662336   0.6605246314  -1.3371103305


                     --------------------
                     INTERNAL COORDINATES
                     --------------------

                 - - ATOMS - -         COORDINATE      COORDINATE
 NO.   TYPE    I  J  K  L  M  N        (BOHR,RAD)       (ANG,DEG)
 ----------------------------------------------------------------
   1 STRETCH   1  4                     2.0535245       1.0866784
   2 STRETCH   1 15                     2.8909164       1.5298072
   3 STRETCH   1  2                     2.0525565       1.0861662
   4 STRETCH   1  3                     2.0505286       1.0850931
   5 STRETCH   5  8                     2.0521598       1.0859563
   6 STRETCH   5  7                     2.0532810       1.0865496
   7 STRETCH   5  9                     2.8888948       1.5287374
   8 STRETCH   5  6                     2.0521537       1.0859530
   9 STRETCH   9 12                     2.8935290       1.5311897
  10 STRETCH   9 11                     2.0563328       1.0881645
  11 STRETCH   9 10                     2.0540339       1.0869480
  12 STRETCH  12 15                     2.8961683       1.5325864
  13 STRETCH  12 14                     2.0581771       1.0891405
  14 STRETCH  12 13                     2.0579532       1.0890220
  15 STRETCH  15 16                     2.0554330       1.0876884
  16 STRETCH  15 17                     2.0564152       1.0882082
  17 BEND      1 15 17                  1.9093547     109.3979640
  18 BEND      1 15 16                  1.8956315     108.6116826
  19 BEND      1 15 12                  1.9983088     114.4946593
  20 BEND      2  1  3                  1.8806231     107.7517636
  21 BEND      2  1  4                  1.8790418     107.6611619
  22 BEND      2  1 15                  1.9391584     111.1055944
  23 BEND      3  1  4                  1.8732599     107.3298888
  24 BEND      3  1 15                  1.9544929     111.9841927
  25 BEND      4  1 15                  1.9340167     110.8109939
  26 BEND      5  9 10                  1.9026234     109.0122918
  27 BEND      5  9 11                  1.9091806     109.3879887
  28 BEND      5  9 12                  1.9663791     112.6652246
  29 BEND      6  5  9                  1.9419051     111.2629686
  30 BEND      6  5  7                  1.8804845     107.7438239
  31 BEND      6  5  8                  1.8799845     107.7151764
  32 BEND      7  5  9                  1.9396698     111.1348941
  33 BEND      7  5  8                  1.8790121     107.6594629
  34 BEND      8  5  9                  1.9399695     111.1520655
  35 BEND      9 12 13                  1.9067926     109.2511668
  36 BEND      9 12 14                  1.8938929     108.5120696
  37 BEND      9 12 15                  2.0034995     114.7920650
  38 BEND     10  9 11                  1.8562625     106.3560058
  39 BEND     10  9 12                  1.9201050     110.0139142
  40 BEND     11  9 12                  1.9060221     109.2070238
  41 BEND     12 15 17                  1.9082243     109.3332012
  42 BEND     12 15 16                  1.8934619     108.4873742
  43 BEND     13 12 14                  1.8523618     106.1325148
  44 BEND     13 12 15                  1.9076428     109.2998820
  45 BEND     14 12 15                  1.8936162     108.4962166
  46 BEND     16 15 17                  1.8532462     106.1831833
  47 TORSION   1 15 12 13              -0.9964598     -57.0929424
  48 TORSION   1 15 12 14              -3.0090790    -172.4075275
  49 TORSION   1 15 12  9               1.1525884      66.0384488
  50 TORSION   2  1 15 16              -1.1380643     -65.2062828
  51 TORSION   2  1 15 12               0.9808946      56.2011200
  52 TORSION   2  1 15 17               3.1294244     179.3028090
  53 TORSION   3  1 15 17               1.0254574      58.7543804
  54 TORSION   3  1 15 16               3.0411540     174.2452886
  55 TORSION   3  1 15 12              -1.1230724     -64.3473086
  56 TORSION   4  1 15 12               3.0690712     175.8448287
  57 TORSION   4  1 15 16               0.9501123      54.4374259
  58 TORSION   4  1 15 17              -1.0655843     -61.0534823
  59 TORSION   5  9 12 15               3.0786626     176.3943760
  60 TORSION   5  9 12 13              -1.0550191     -60.4481432
  61 TORSION   5  9 12 14               0.9572955      54.8489934
  62 TORSION   6  5  9 12               3.1394841     179.8791914
  63 TORSION   6  5  9 11              -1.0202975     -58.4587382
  64 TORSION   6  5  9 10               1.0027809      57.4551125
  65 TORSION   7  5  9 12              -1.0481092     -60.0522353
  66 TORSION   7  5  9 11               1.0752945      61.6098350
  67 TORSION   7  5  9 10               3.0983728     177.5236858
  68 TORSION   8  5  9 12               1.0443234      59.8353258
  69 TORSION   8  5  9 11              -3.1154582    -178.5026038
  70 TORSION   8  5  9 10              -1.0923798     -62.5887531
  71 TORSION   9 12 15 17              -0.9965504     -57.0981329
  72 TORSION   9 12 15 16              -3.0104473    -172.4859235
  73 TORSION  10  9 12 15              -1.0776794     -61.7464833
  74 TORSION  10  9 12 14               3.0841388     176.7081341
  75 TORSION  10  9 12 13               1.0718241      61.4109975
  76 TORSION  11  9 12 15               0.9534692      54.6297637
  77 TORSION  11  9 12 14              -1.1678979     -66.9156190
  78 TORSION  11  9 12 13               3.1029728     177.7872444
  79 TORSION  13 12 15 17               3.1375867     179.7704759
  80 TORSION  13 12 15 16               1.1236898      64.3826854
  81 TORSION  14 12 15 17               1.1249675      64.4558908
  82 TORSION  14 12 15 16              -0.8889293     -50.9318997

          ********************
          1 ELECTRON INTEGRALS
          ********************
 ...... END OF ONE-ELECTRON INTEGRALS ......
 CPU     0: STEP CPU TIME=     0.00 TOTAL CPU TIME=        0.0 (    0.0 MIN)
 TOTAL WALL CLOCK TIME=        0.0 SECONDS, CPU UTILIZATION IS  60.00%

          -------------
          GUESS OPTIONS
          -------------
          GUESS =HUCKEL            NORB  =       0          NORDER=       0
          MIX   =       F          PRTMO =       F          PUNMO =       F
          TOLZ  = 1.0E-08          TOLE  = 1.0E-05
          SYMDEN=       F          PURIFY=       F

 INITIAL GUESS ORBITALS GENERATED BY HUCKEL   ROUTINE.
 HUCKEL GUESS REQUIRES     88679 WORDS.

 SYMMETRIES FOR INITIAL GUESS ORBITALS FOLLOW.   BOTH SET(S).
    21 ORBITALS ARE OCCUPIED (    5 CORE ORBITALS).
     6=A        7=A        8=A        9=A       10=A       11=A       12=A   
    13=A       14=A       15=A       16=A       17=A       18=A       19=A   
    20=A       21=A       22=A       23=A       24=A       25=A       26=A   
    27=A       28=A       29=A       30=A       31=A   
 ...... END OF INITIAL ORBITAL SELECTION ......
 CPU     0: STEP CPU TIME=     0.01 TOTAL CPU TIME=        0.0 (    0.0 MIN)
 TOTAL WALL CLOCK TIME=        0.1 SECONDS, CPU UTILIZATION IS  66.67%

                    ----------------------
                    AO INTEGRAL TECHNOLOGY
                    ----------------------
     S,P,L SHELL ROTATED AXIS INTEGRALS, REPROGRAMMED BY
        KAZUYA ISHIMURA (IMS) AND JOSE SIERRA (SYNSTAR).
     S,P,D,L SHELL ROTATED AXIS INTEGRALS PROGRAMMED BY
        KAZUYA ISHIMURA (INSTITUTE FOR MOLECULAR SCIENCE).
     S,P,D,F,G SHELL TO TOTAL QUARTET ANGULAR MOMENTUM SUM 5,
        ERIC PROGRAM BY GRAHAM FLETCHER (ELORET AND NASA ADVANCED
        SUPERCOMPUTING DIVISION, AMES RESEARCH CENTER).
     S,P,D,F,G,L SHELL GENERAL RYS QUADRATURE PROGRAMMED BY
        MICHEL DUPUIS (PACIFIC NORTHWEST NATIONAL LABORATORY).

          --------------------
          2 ELECTRON INTEGRALS
          --------------------

 THE -PK- OPTION IS OFF, THE INTEGRALS ARE NOT IN SUPERMATRIX FORM.
 STORING   15000 INTEGRALS/RECORD ON DISK, USING 12 BYTES/INTEGRAL.
 TWO ELECTRON INTEGRAL EVALUATION REQUIRES   91386 WORDS OF MEMORY.
 SCHWARZ INEQUALITY OVERHEAD:      4915 INTEGRALS, T=        0.00
 II,JST,KST,LST =  1  1  1  1 NREC =         1 INTLOC =    1
 II,JST,KST,LST =  2  1  1  1 NREC =         1 INTLOC =    1
 II,JST,KST,LST =  3  1  1  1 NREC =         1 INTLOC =    1
 II,JST,KST,LST =  4  1  1  1 NREC =         1 INTLOC =    1
 II,JST,KST,LST =  5  1  1  1 NREC =         1 INTLOC =    1
 II,JST,KST,LST =  6  1  1  1 NREC =         1 INTLOC =   75
 II,JST,KST,LST =  7  1  1  1 NREC =         1 INTLOC = 1470
 II,JST,KST,LST =  8  1  1  1 NREC =         1 INTLOC = 1470
 II,JST,KST,LST =  9  1  1  1 NREC =         1 INTLOC = 2654
 II,JST,KST,LST = 10  1  1  1 NREC =         1 INTLOC = 3054
 II,JST,KST,LST = 11  1  1  1 NREC =         1 INTLOC = 3054
 II,JST,KST,LST = 12  1  1  1 NREC =         1 INTLOC = 3395
 II,JST,KST,LST = 13  1  1  1 NREC =         1 INTLOC = 4788
 II,JST,KST,LST = 14  1  1  1 NREC =         2 INTLOC = 1812
 II,JST,KST,LST = 15  1  1  1 NREC =         2 INTLOC = 1812
 II,JST,KST,LST = 16  1  1  1 NREC =         2 INTLOC = 2566
 II,JST,KST,LST = 17  1  1  1 NREC =         2 INTLOC = 6375
 II,JST,KST,LST = 18  1  1  1 NREC =         2 INTLOC = 8752
 II,JST,KST,LST = 19  1  1  1 NREC =         2 INTLOC =13732
 II,JST,KST,LST = 20  1  1  1 NREC =         3 INTLOC = 3728
 II,JST,KST,LST = 21  1  1  1 NREC =         3 INTLOC = 6632
 II,JST,KST,LST = 22  1  1  1 NREC =         3 INTLOC =10408
 II,JST,KST,LST = 23  1  1  1 NREC =         4 INTLOC = 1583
 II,JST,KST,LST = 24  1  1  1 NREC =         5 INTLOC =10157
 II,JST,KST,LST = 25  1  1  1 NREC =        11 INTLOC = 5507
 II,JST,KST,LST = 26  1  1  1 NREC =        11 INTLOC = 5507
 II,JST,KST,LST = 27  1  1  1 NREC =        12 INTLOC = 1601
 II,JST,KST,LST = 28  1  1  1 NREC =        13 INTLOC =10243
 II,JST,KST,LST = 29  1  1  1 NREC =        14 INTLOC = 8978
 II,JST,KST,LST = 30  1  1  1 NREC =        15 INTLOC = 8709
 II,JST,KST,LST = 31  1  1  1 NREC =        18 INTLOC =12709
 II,JST,KST,LST = 32  1  1  1 NREC =        24 INTLOC = 4623
 II,JST,KST,LST = 33  1  1  1 NREC =        41 INTLOC =11496
 II,JST,KST,LST = 34  1  1  1 NREC =        41 INTLOC =11496
 II,JST,KST,LST = 35  1  1  1 NREC =        43 INTLOC =  705
 II,JST,KST,LST = 36  1  1  1 NREC =        45 INTLOC = 2542
 II,JST,KST,LST = 37  1  1  1 NREC =        47 INTLOC = 3184
 II,JST,KST,LST = 38  1  1  1 NREC =        48 INTLOC =11175
 II,JST,KST,LST = 39  1  1  1 NREC =        57 INTLOC = 1089
 II,JST,KST,LST = 40  1  1  1 NREC =        72 INTLOC = 6217
 II,JST,KST,LST = 41  1  1  1 NREC =        75 INTLOC =10911
 II,JST,KST,LST = 42  1  1  1 NREC =        80 INTLOC = 4415
 II,JST,KST,LST = 43  1  1  1 NREC =        82 INTLOC = 8401
 II,JST,KST,LST = 44  1  1  1 NREC =        87 INTLOC =  657
 SCHWARZ INEQUALITY TEST SKIPPED       96531 INTEGRAL BLOCKS.
 TOTAL NUMBER OF NONZERO TWO-ELECTRON INTEGRALS =             9750080
        655 INTEGRAL RECORDS WERE STORED ON DISK FILE  8.
  ...... END OF TWO-ELECTRON INTEGRALS .....
 CPU     0: STEP CPU TIME=     0.14 TOTAL CPU TIME=        0.2 (    0.0 MIN)
 TOTAL WALL CLOCK TIME=        0.2 SECONDS, CPU UTILIZATION IS  90.00%

          --------------------------
                 RHF SCF CALCULATION
          --------------------------

     NUCLEAR ENERGY =       187.4346073654
     MAXIT =  200     NPUNCH=    2
     EXTRAP=T  DAMP=F  SHIFT=F  RSTRCT=F  DIIS=F  DEM=F  SOSCF=T
     DENSITY MATRIX CONV=  1.00E-08
     SOSCF WILL OPTIMIZE    1638 ORBITAL ROTATIONS, SOGTOL=   0.250
     MEMORY REQUIRED FOR RHF ITERS=    106545 WORDS.

 ITER EX DEM     TOTAL ENERGY        E CHANGE  DENSITY CHANGE     ORB. GRAD
   1  0  0     -195.8716001335  -195.8716001335   0.139277676   0.000000000
          ---------------START SECOND ORDER SCF---------------
   2  1  0     -196.3033839114    -0.4317837779   0.050298605   0.025223651
   3  2  0     -196.3273272856    -0.0239433742   0.018737659   0.011337160
   4  3  0     -196.3313671974    -0.0040399118   0.006636239   0.002162647
   5  4  0     -196.3314965464    -0.0001293490   0.001149892   0.000320003
   6  5  0     -196.3315020565    -0.0000055102   0.000228354   0.000092632
   7  6  0     -196.3315025713    -0.0000005148   0.000089345   0.000018963
   8  7  0     -196.3315025937    -0.0000000224   0.000015438   0.000004680
   9  8  0     -196.3315025952    -0.0000000015   0.000003583   0.000001039
  10  9  0     -196.3315025952    -0.0000000001   0.000000899   0.000000429
  11 10  0     -196.3315025952    -0.0000000000   0.000000263   0.000000053
  12 11  0     -196.3315025952     0.0000000000   0.000000065   0.000000015
  13 12  0     -196.3315025952     0.0000000000   0.000000000   0.000000005

          -----------------
          DENSITY CONVERGED
          -----------------
     TIME TO FORM FOCK OPERATORS=       0.2 SECONDS (       0.0 SEC/ITER)
     TIME TO SOLVE SCF EQUATIONS=       0.0 SECONDS (       0.0 SEC/ITER)

 FINAL RHF ENERGY IS     -196.3315025952 AFTER  13 ITERATIONS

          ------------
          EIGENVECTORS
          ------------

                      1          2          3          4          5
                  -11.2138   -11.2130   -11.2115   -11.2072   -11.2069
                     A          A          A          A          A   
    1  C  1  S    0.041635  -0.003826  -0.009693  -0.000195   0.994811
    2  C  1  S    0.001173  -0.000142  -0.000562   0.000001   0.028484
    3  C  1  X    0.000060  -0.000057  -0.000143  -0.000029   0.000038
    4  C  1  Y    0.000047  -0.000003  -0.000049  -0.000021   0.000000
    5  C  1  Z   -0.000013   0.000036  -0.000047   0.000004   0.000013
    6  C  1  S    0.003946  -0.000152   0.000588  -0.000220  -0.015288
    7  C  1  X    0.001059  -0.000104   0.000513  -0.000009  -0.000447
    8  C  1  Y    0.001557  -0.000317  -0.000087   0.000019  -0.000485
    9  C  1  Z   -0.000505  -0.000078   0.000327   0.000026   0.000121
   10  C  1 XX   -0.000265  -0.000030  -0.000009  -0.000005  -0.001825
   11  C  1 YY   -0.000496   0.000028  -0.000015   0.000003  -0.001840
   12  C  1 ZZ   -0.000232  -0.000033  -0.000059  -0.000008  -0.001824
   13  C  1 XY   -0.000149  -0.000002   0.000052  -0.000008  -0.000022
   14  C  1 XZ    0.000047  -0.000002   0.000019   0.000007   0.000007
   15  C  1 YZ    0.000130  -0.000009  -0.000040  -0.000007   0.000016
   16  H  2  S   -0.000182   0.000050  -0.000077  -0.000000   0.000149
   17  H  2  S    0.000060  -0.000055  -0.000375   0.000033   0.002648
   18  H  3  S   -0.000168   0.000021  -0.000029   0.000002   0.000133
   19  H  3  S    0.000002  -0.000361  -0.000299   0.000080   0.002700
   20  H  4  S   -0.000142   0.000000   0.000005   0.000007   0.000129
   21  H  4  S    0.000017  -0.000001   0.000393   0.000069   0.002480
   22  C  5  S    0.001663   0.049444  -0.015090   0.994400   0.000163
   23  C  5  S   -0.000140   0.001451  -0.000605   0.028498  -0.000023
   24  C  5  X    0.000019  -0.000068   0.000108  -0.000033  -0.000009
   25  C  5  Y   -0.000018   0.000014  -0.000050   0.000040  -0.000008
   26  C  5  Z   -0.000020   0.000003  -0.000015   0.000026   0.000008
   27  C  5  S    0.001335   0.003385  -0.000294  -0.015508   0.000096
   28  C  5  X   -0.000703  -0.001653   0.000311   0.000841  -0.000039
   29  C  5  Y    0.000084  -0.000213   0.000255  -0.000123   0.000082
   30  C  5  Z    0.000005  -0.000559   0.000260   0.000097  -0.000062
   31  C  5 XX   -0.000017  -0.000539   0.000074  -0.001852   0.000011
   32  C  5 YY   -0.000078  -0.000212   0.000019  -0.001800  -0.000003
   33  C  5 ZZ   -0.000072  -0.000243  -0.000003  -0.001809  -0.000009
   34  C  5 XY   -0.000005  -0.000076  -0.000010  -0.000014  -0.000002
   35  C  5 XZ    0.000004  -0.000145   0.000020  -0.000021   0.000009
   36  C  5 YZ   -0.000000  -0.000033   0.000052   0.000005  -0.000006
   37  H  6  S   -0.000035  -0.000137   0.000008   0.000120  -0.000001
   38  H  6  S    0.000148   0.000004   0.000236   0.002432   0.000004
   39  H  7  S   -0.000065  -0.000148   0.000017   0.000165  -0.000011
   40  H  7  S   -0.000034   0.000072  -0.000315   0.002676  -0.000064
   41  H  8  S   -0.000075  -0.000143   0.000012   0.000165  -0.000004
   42  H  8  S   -0.000099   0.000104  -0.000295   0.002671   0.000042
   43  C  9  S    0.041208   0.974372  -0.194838  -0.051760   0.000117
   44  C  9  S    0.001014   0.027979  -0.005547  -0.001364   0.000063
   45  C  9  X    0.000140   0.000033  -0.000121   0.000008   0.000047
   46  C  9  Y   -0.000011   0.000030   0.000023  -0.000016   0.000011
   47  C  9  Z    0.000050   0.000033  -0.000003  -0.000010  -0.000036
   48  C  9  S    0.000092  -0.016237   0.007523   0.004290  -0.000440
   49  C  9  X   -0.001138  -0.000330  -0.001232   0.001805   0.000151
   50  C  9  Y    0.000014  -0.000355   0.001440   0.000142  -0.000178
   51  C  9  Z   -0.000391  -0.000358   0.000843   0.000477   0.000017
   52  C  9 XX   -0.000176  -0.001666   0.000097  -0.000333  -0.000057
   53  C  9 YY   -0.000174  -0.001622   0.000015  -0.000054   0.000028
   54  C  9 ZZ   -0.000154  -0.001583   0.000144  -0.000061  -0.000028
   55  C  9 XY   -0.000007   0.000050   0.000154  -0.000036   0.000004
   56  C  9 XZ   -0.000001   0.000004   0.000081  -0.000108   0.000003
   57  C  9 YZ   -0.000007  -0.000075  -0.000134  -0.000051  -0.000001
   58  H 10  S   -0.000047   0.000169  -0.000189  -0.000135  -0.000006
   59  H 10  S   -0.000214   0.002834  -0.000531  -0.000093  -0.000084
   60  H 11  S   -0.000100   0.000196  -0.000200  -0.000138   0.000063
   61  H 11  S   -0.000249   0.002728  -0.000485  -0.000104  -0.000015
   62  C 12  S    0.137876   0.187732   0.968225   0.005060   0.004269
   63  C 12  S    0.004031   0.005435   0.027769  -0.000032  -0.000174
   64  C 12  X   -0.000064   0.000086  -0.000035  -0.000134   0.000108
   65  C 12  Y   -0.000027  -0.000021  -0.000054   0.000010   0.000120
   66  C 12  Z   -0.000007   0.000002  -0.000011  -0.000032  -0.000003
   67  C 12  S    0.001726   0.000298  -0.018240  -0.000103   0.000891
   68  C 12  X   -0.001925   0.001563   0.000055   0.000852  -0.000305
   69  C 12  Y   -0.000009  -0.001208   0.001034   0.000173  -0.000569
   70  C 12  Z   -0.000421  -0.000581   0.000702   0.000408  -0.000020
   71  C 12 XX   -0.000627  -0.000531  -0.001453  -0.000035  -0.000042
   72  C 12 YY   -0.000370  -0.000585  -0.001467  -0.000034  -0.000082
   73  C 12 ZZ   -0.000372  -0.000461  -0.001472  -0.000063  -0.000106
   74  C 12 XY    0.000026   0.000152  -0.000009  -0.000030   0.000017
   75  C 12 XZ   -0.000130   0.000090  -0.000013  -0.000022   0.000027
   76  C 12 YZ   -0.000035  -0.000142  -0.000017   0.000022  -0.000011
   77  H 13  S   -0.000129  -0.000095   0.000284  -0.000047  -0.000059
   78  H 13  S    0.000374   0.000584   0.002720  -0.000305  -0.000240
   79  H 14  S   -0.000078  -0.000089   0.000260  -0.000058  -0.000005
   80  H 14  S    0.000261   0.000548   0.002575  -0.000244   0.000385
   81  C 15  S    0.984486  -0.067172  -0.127260  -0.000302  -0.042990
   82  C 15  S    0.028282  -0.002103  -0.003481  -0.000158  -0.001071
   83  C 15  X    0.000035  -0.000087   0.000122  -0.000001  -0.000050
   84  C 15  Y   -0.000109   0.000073  -0.000005   0.000020  -0.000006
   85  C 15  Z    0.000023   0.000003   0.000005   0.000005  -0.000005
   86  C 15  S   -0.016827   0.002463   0.005506   0.001118   0.003679
   87  C 15  X   -0.000332   0.000546   0.001741   0.000537  -0.001081
   88  C 15  Y    0.000850  -0.000250   0.000293  -0.000147  -0.001454
   89  C 15  Z   -0.000409   0.000147   0.000423   0.000083   0.000387
   90  C 15 XX   -0.001668  -0.000028  -0.000181  -0.000002  -0.000166
   91  C 15 YY   -0.001604   0.000031   0.000082  -0.000056  -0.000284
   92  C 15 ZZ   -0.001558   0.000004   0.000083  -0.000053  -0.000060
   93  C 15 XY   -0.000034  -0.000022  -0.000051  -0.000005  -0.000158
   94  C 15 XZ   -0.000060  -0.000020  -0.000148   0.000013   0.000036
   95  C 15 YZ    0.000045   0.000025  -0.000018  -0.000009   0.000112
   96  H 16  S    0.000200  -0.000063  -0.000127  -0.000026  -0.000125
   97  H 16  S    0.002530   0.000072  -0.000516   0.000076  -0.000036
   98  H 17  S    0.000225  -0.000058  -0.000173  -0.000051  -0.000135
   99  H 17  S    0.002722  -0.000408  -0.000327  -0.000042  -0.000047

                      6          7          8          9         10
                   -1.0787    -1.0122    -0.9204    -0.8339    -0.7743
                     A          A          A          A          A   
    1  C  1  S   -0.064866   0.104845  -0.118921  -0.072322  -0.048853
    2  C  1  S    0.120290  -0.193820   0.220605   0.134537   0.090510
    3  C  1  X    0.024537  -0.016446  -0.020953  -0.030180  -0.035214
    4  C  1  Y    0.031059  -0.033448  -0.017141  -0.080377  -0.086505
    5  C  1  Z   -0.009091   0.010231   0.001549   0.023176   0.053567
    6  C  1  S    0.095410  -0.173866   0.227527   0.160911   0.119506
    7  C  1  X    0.003191  -0.001547  -0.006242  -0.006666  -0.010292
    8  C  1  Y    0.004430  -0.003855  -0.007458  -0.024454  -0.028947
    9  C  1  Z   -0.001245   0.001004   0.002084   0.006934   0.018088
   10  C  1 XX    0.003124  -0.004331   0.005328   0.004582   0.002857
   11  C  1 YY    0.005728  -0.007059   0.003030  -0.002787  -0.004430
   12  C  1 ZZ    0.001680  -0.003587   0.006592   0.006653   0.006840
   13  C  1 XY    0.003423  -0.002599  -0.003545  -0.007355  -0.006272
   14  C  1 XZ   -0.001173   0.000625   0.001277   0.001772   0.002861
   15  C  1 YZ   -0.001574   0.001440   0.001388   0.004635   0.005348
   16  H  2  S    0.035695  -0.062502   0.084255   0.069582   0.071440
   17  H  2  S    0.006770  -0.012854   0.023101   0.027360   0.034968
   18  H  3  S    0.036375  -0.060881   0.085180   0.078107   0.054952
   19  H  3  S    0.007613  -0.011220   0.024568   0.032517   0.021655
   20  H  4  S    0.032481  -0.063193   0.091457   0.064087   0.046692
   21  H  4  S    0.004803  -0.013213   0.027778   0.025410   0.022036
   22  C  5  S   -0.063974  -0.109439  -0.106783   0.092938  -0.030313
   23  C  5  S    0.118581   0.202701   0.197518  -0.172988   0.057827
   24  C  5  X   -0.039636  -0.037008   0.022722  -0.097718   0.059154
   25  C  5  Y   -0.001083  -0.004426  -0.007074  -0.016405   0.041392
   26  C  5  Z   -0.009447  -0.011508   0.000562  -0.031915   0.048504
   27  C  5  S    0.093615   0.181144   0.207594  -0.203202   0.069156
   28  C  5  X   -0.004970  -0.004554   0.007190  -0.029912   0.020569
   29  C  5  Y   -0.000327  -0.000674  -0.000107  -0.005984   0.014571
   30  C  5  Z   -0.001200  -0.001423   0.001385  -0.011100   0.016412
   31  C  5 XX    0.007471   0.008235   0.001108   0.006805  -0.005489
   32  C  5 YY    0.001059   0.003586   0.006405  -0.009409   0.004519
   33  C  5 ZZ    0.001600   0.003937   0.005877  -0.007987   0.004525
   34  C  5 XY    0.000711   0.000585  -0.000507   0.002744  -0.001919
   35  C  5 XZ    0.002134   0.001669  -0.001670   0.006128  -0.004780
   36  C  5 YZ    0.000075   0.000232   0.000267   0.000993  -0.002290
   37  H  6  S    0.032129   0.065167   0.082704  -0.086964   0.018539
   38  H  6  S    0.004726   0.013505   0.025342  -0.034747   0.007752
   39  H  7  S    0.035018   0.065474   0.074687  -0.089412   0.048202
   40  H  7  S    0.006523   0.014000   0.020046  -0.034623   0.024350
   41  H  8  S    0.035099   0.065493   0.075267  -0.088219   0.051185
   42  H  8  S    0.006251   0.013905   0.020672  -0.033513   0.026375
   43  C  9  S   -0.105512  -0.097049   0.004351  -0.098992   0.076539
   44  C  9  S    0.195356   0.179543  -0.007656   0.185957  -0.144143
   45  C  9  X   -0.013130   0.055039   0.104041  -0.077052  -0.005085
   46  C  9  Y    0.030288   0.002008  -0.043587  -0.029711   0.102907
   47  C  9  Z    0.020385   0.012068  -0.004949  -0.029735   0.092563
   48  C  9  S    0.156901   0.161094  -0.009947   0.213263  -0.182244
   49  C  9  X   -0.002122   0.010350   0.023367  -0.025181   0.004110
   50  C  9  Y    0.004317  -0.001621  -0.010650  -0.013044   0.038363
   51  C  9  Z    0.002805   0.000585  -0.001116  -0.012229   0.034787
   52  C  9 XX    0.006560   0.006801   0.006162  -0.008036   0.004415
   53  C  9 YY    0.004974   0.001520  -0.005347   0.008076  -0.001914
   54  C  9 ZZ    0.002922   0.003029  -0.000733   0.007865  -0.008709
   55  C  9 XY   -0.003105   0.002924   0.007878   0.000707  -0.007104
   56  C  9 XZ   -0.001149   0.003532   0.006996  -0.004750  -0.001993
   57  C  9 YZ    0.001958  -0.000486  -0.003257  -0.002316   0.008401
   58  H 10  S    0.058097   0.055206   0.001636   0.096652  -0.095463
   59  H 10  S    0.009805   0.009012   0.003080   0.038437  -0.040466
   60  H 11  S    0.057581   0.056358  -0.003121   0.088817  -0.106980
   61  H 11  S    0.009578   0.010009  -0.000379   0.031865  -0.050509
   62  C 12  S   -0.119181   0.000242   0.114093   0.000186  -0.093914
   63  C 12  S    0.220455  -0.000592  -0.212116  -0.000771   0.176903
   64  C 12  X   -0.008147   0.084863   0.003835   0.103336   0.054235
   65  C 12  Y   -0.027432  -0.023091  -0.018689  -0.075024   0.076007
   66  C 12  Z   -0.022612  -0.001991   0.000578  -0.007854   0.107825
   67  C 12  S    0.177020  -0.000105  -0.217747   0.001959   0.222415
   68  C 12  X   -0.000977   0.016344  -0.001228   0.026724   0.021693
   69  C 12  Y   -0.003254  -0.005813  -0.007286  -0.022865   0.027734
   70  C 12  Z   -0.002736  -0.000543  -0.003698  -0.003513   0.041456
   71  C 12 XX    0.008778  -0.004575  -0.000665  -0.006402  -0.008160
   72  C 12 YY    0.004230   0.004286  -0.004820   0.005322   0.004877
   73  C 12 ZZ    0.003132   0.000223  -0.005603   0.000568   0.010609
   74  C 12 XY   -0.002036  -0.005802  -0.001487  -0.006308   0.007436
[...]
    2             0.012274   0.035037   0.060761   0.041865   0.045051
    3             0.013236   0.032054   0.063485   0.055522   0.023453
    4             0.009484   0.036265   0.074970   0.035454   0.018396
    5             0.169889   0.447469   0.395229   0.358759   0.083272
    6             0.009261   0.038240   0.061400   0.065733   0.002675
    7             0.011773   0.038839   0.047618   0.069178   0.021084
    8             0.011647   0.038690   0.048630   0.066509   0.023875
    9             0.433952   0.359863   0.091927   0.362653   0.317040
   10             0.031534   0.025481   0.000219   0.081614   0.073730
   11             0.030763   0.027193   0.000063   0.064812   0.098326
   12             0.546923   0.061749   0.433079   0.110259   0.416513
   13             0.038850   0.000000   0.049110   0.000020   0.141040
   14             0.037395   0.000269   0.062569   0.002722   0.098196
   15             0.412806   0.381057   0.121321   0.322566   0.311886
   16             0.025993   0.036084   0.000465   0.080683   0.057362
   17             0.029022   0.030303   0.000505   0.053110   0.113905

                     11         12         13         14         15

                  2.000000   2.000000   2.000000   2.000000   2.000000

    1             0.115001   0.421472   0.285049   0.251402   0.400367
    2             0.009199   0.061278   0.078000   0.022491   0.216583
    3             0.009753   0.160967   0.004654   0.034571   0.000162
    4             0.040222   0.047528   0.109385   0.074929   0.033291
    5             0.189633   0.100353   0.390824   0.540325   0.371094
    6             0.004325   0.002517   0.144153   0.208512   0.047848
    7             0.071690   0.000739   0.015144   0.179100   0.031966
    8             0.042743   0.035973   0.084997   0.000057   0.205923
    9             0.422514   0.121322   0.264911   0.174043   0.015629
   10             0.155355   0.003981   0.001351   0.052797   0.002946
   11             0.087476   0.018072   0.098147   0.000235   0.000159
   12             0.404800   0.140885   0.191381   0.206814   0.313267
   13             0.100698   0.009430   0.002775   0.000386   0.175106
   14             0.135462   0.023905   0.001774   0.099491   0.034586
   15             0.149347   0.541508   0.260414   0.138090   0.140230
   16             0.009676   0.234077   0.007052   0.001051   0.009991
   17             0.052108   0.075994   0.059990   0.015708   0.000852

                     16         17         18         19         20

                  2.000000   2.000000   2.000000   2.000000   2.000000

    1             0.538553   0.243908   0.301350   0.099537   0.262125
    2             0.000475   0.027924   0.158082   0.061029   0.014268
    3             0.261406   0.072560   0.017065   0.000064   0.015587
    4             0.194737   0.039300   0.001444   0.001820   0.079992
    5             0.311278   0.448746   0.253283   0.063169   0.155437
    6             0.055086   0.058903   0.014823   0.006042   0.001668
    7             0.000002   0.230338   0.058779   0.012434   0.041120
    8             0.033394   0.007516   0.178167   0.062618   0.002490
    9             0.301454   0.300915   0.252456   0.263659   0.232161
   10             0.000248   0.138203   0.042635   0.053448   0.141970
   11             0.013883   0.011401   0.167456   0.224938   0.004043
   12             0.163586   0.065854   0.048559   0.359836   0.422630
   13             0.007736   0.006577   0.000799   0.309724   0.006710
   14             0.022653   0.005016   0.014141   0.060402   0.227419
   15             0.054650   0.233626   0.309893   0.221227   0.357842
   16             0.039714   0.094729   0.004196   0.005467   0.009537
   17             0.001144   0.014486   0.176873   0.194585   0.025001

                     21

                  2.000000

    1             0.106717
    2             0.000007
    3             0.075041
    4             0.041485
    5             0.200741
    6             0.117769
    7             0.013738
    8             0.000091
    9             0.392954
   10             0.036257
   11             0.000059
   12             0.416823
   13             0.000164
   14             0.019321
   15             0.349671
   16             0.226160
   17             0.003000

               ----- POPULATIONS IN EACH AO -----
                             MULLIKEN      LOWDIN
              1  C  1  S      1.99662     1.98097
              2  C  1  S      0.62763     0.34959
              3  C  1  X      0.68879     0.62477
              4  C  1  Y      0.68342     0.62214
              5  C  1  Z      0.68936     0.62300
              6  C  1  S      0.64525     0.33033
              7  C  1  X      0.36874     0.47479
              8  C  1  Y      0.31971     0.43976
              9  C  1  Z      0.38220     0.49285
             10  C  1 XX      0.01562     0.15815
             11  C  1 YY      0.01258     0.15588
             12  C  1 ZZ      0.00886     0.15954
             13  C  1 XY      0.00435     0.01334
             14  C  1 XZ      0.00647     0.00646
             15  C  1 YZ      0.03249     0.01060
             16  H  2  S      0.52740     0.49654
             17  H  2  S      0.31746     0.36056
             18  H  3  S      0.52860     0.49526
             19  H  3  S      0.31152     0.35752
             20  H  4  S      0.52744     0.49568
             21  H  4  S      0.31176     0.35686
             22  C  5  S      1.99664     1.98096
             23  C  5  S      0.62833     0.34995
             24  C  5  X      0.67843     0.61946
             25  C  5  Y      0.69167     0.62521
             26  C  5  Z      0.69026     0.62414
             27  C  5  S      0.64419     0.33005
             28  C  5  X      0.29581     0.41574
             29  C  5  Y      0.39113     0.49761
             30  C  5  Z      0.38108     0.49158
             31  C  5 XX      0.01590     0.15281
             32  C  5 YY      0.00937     0.15577
             33  C  5 ZZ      0.01223     0.16004
             34  C  5 XY      0.00597     0.02064
             35  C  5 XZ      0.00454     0.01015
             36  C  5 YZ      0.03246     0.00639
             37  H  6  S      0.52761     0.49341
             38  H  6  S      0.31183     0.35701
             39  H  7  S      0.52775     0.49537
             40  H  7  S      0.31633     0.35969
             41  H  8  S      0.52759     0.49680
             42  H  8  S      0.31627     0.35978
             43  C  9  S      1.99682     1.97976
             44  C  9  S      0.62789     0.34493
             45  C  9  X      0.66897     0.61053
             46  C  9  Y      0.68585     0.62278
             47  C  9  Z      0.68470     0.61926
             48  C  9  S      0.61044     0.31063
             49  C  9  X      0.25870     0.37488
             50  C  9  Y      0.33500     0.44257
             51  C  9  Z      0.35894     0.46280
             52  C  9 XX      0.01847     0.15272
             53  C  9 YY      0.01333     0.15695
             54  C  9 ZZ      0.01088     0.16022
             55  C  9 XY      0.00621     0.01805
             56  C  9 XZ      0.00435     0.01053
             57  C  9 YZ      0.02571     0.00648
             58  H 10  S      0.53217     0.50533
             59  H 10  S      0.31019     0.35508
             60  H 11  S      0.53100     0.50574
             61  H 11  S      0.31659     0.35855
             62  C 12  S      1.99685     1.97961
             63  C 12  S      0.62860     0.34715
             64  C 12  X      0.67417     0.61781
             65  C 12  Y      0.67978     0.61686
             66  C 12  Z      0.68232     0.61769
             67  C 12  S      0.61019     0.31030
             68  C 12  X      0.25661     0.37188
             69  C 12  Y      0.33667     0.44231
             70  C 12  Z      0.35809     0.46216
             71  C 12 XX      0.01870     0.15447
             72  C 12 YY      0.01259     0.15664
             73  C 12 ZZ      0.01165     0.16121
             74  C 12 XY      0.00629     0.01957
             75  C 12 XZ      0.00394     0.01059
             76  C 12 YZ      0.02551     0.00592
             77  H 13  S      0.53061     0.50547
             78  H 13  S      0.31909     0.36008
             79  H 14  S      0.53121     0.50468
             80  H 14  S      0.31465     0.35629
             81  C 15  S      1.99684     1.97973
             82  C 15  S      0.62777     0.34506
             83  C 15  X      0.67399     0.61586
             84  C 15  Y      0.67607     0.61308
             85  C 15  Z      0.68684     0.62088
             86  C 15  S      0.61328     0.31093
             87  C 15  X      0.27236     0.38895
             88  C 15  Y      0.31471     0.42551
             89  C 15  Z      0.36381     0.46637
             90  C 15 XX      0.01783     0.15212
             91  C 15 YY      0.01034     0.15246
             92  C 15 ZZ      0.01378     0.15981
             93  C 15 XY      0.00583     0.02349
             94  C 15 XZ      0.00550     0.00976
             95  C 15 YZ      0.02579     0.00872
             96  H 16  S      0.53154     0.50363
             97  H 16  S      0.31123     0.35411
             98  H 17  S      0.53099     0.50574
             99  H 17  S      0.31616     0.35824

          ----- MULLIKEN ATOMIC OVERLAP POPULATIONS -----
          (OFF-DIAGONAL ELEMENTS NEED TO BE MULTIPLIED BY 2)

             1           2           3           4           5

    1    5.1069036
    2    0.3915151   0.5487452
    3    0.3930362  -0.0296334   0.5429525
    4    0.3961154  -0.0282316  -0.0288877   0.5379614
    5   -0.0000497  -0.0000295   0.0000008   0.0000014   5.0948813
    6    0.0000032   0.0000003   0.0000016  -0.0000000   0.3956220
    7   -0.0000011   0.0000003  -0.0000013   0.0000001   0.3923320
    8    0.0000031  -0.0000006   0.0000045  -0.0000001   0.3921641
    9   -0.0022025   0.0000027   0.0012225  -0.0000232   0.3433736
   10    0.0007751   0.0002011  -0.0010212   0.0000299  -0.0408009
   11    0.0000498   0.0000339   0.0002843  -0.0000287  -0.0405260
   12   -0.0551832  -0.0032911  -0.0034501   0.0042544  -0.0564714
   13   -0.0041497   0.0031295   0.0002246  -0.0000848  -0.0027539
   14    0.0044821  -0.0000358  -0.0001055  -0.0000840  -0.0035115
   15    0.3348340  -0.0393283  -0.0356277  -0.0361045   0.0039485
   16   -0.0419781  -0.0025771   0.0041297  -0.0034266  -0.0000917
   17   -0.0420826   0.0043589  -0.0030074  -0.0022928  -0.0000940

             6           7           8           9          10

    6    0.5375307
    7   -0.0281662   0.5474784
    8   -0.0282428  -0.0298120   0.5475321
    9   -0.0363925  -0.0382256  -0.0381622   5.0688305
   10   -0.0024943   0.0042868  -0.0029915   0.4008007   0.5579914
   11   -0.0026352  -0.0029825   0.0043084   0.4000241  -0.0329140
   12    0.0044202  -0.0036958  -0.0035511   0.3452388  -0.0398810
   13   -0.0000808   0.0001393   0.0025078  -0.0429529  -0.0031134
   14   -0.0000390   0.0028229   0.0001463  -0.0437311   0.0044665
   15   -0.0000880  -0.0000991  -0.0000464  -0.0514904  -0.0031106
   16    0.0000014  -0.0000029   0.0000013   0.0045463  -0.0001053
   17    0.0000002   0.0000113   0.0000012  -0.0046068   0.0002364

            11          12          13          14          15

   11    0.5642400
   12   -0.0446615   5.0934247
   13    0.0046900   0.3945071   0.5669960
   14   -0.0027804   0.4029546  -0.0314998   0.5599496
   15   -0.0025587   0.3520003  -0.0403207  -0.0410331   5.0589334
   16   -0.0000291  -0.0425477  -0.0022204  -0.0041121   0.4061761
   17    0.0030741  -0.0421133   0.0046803  -0.0020310   0.3986574

            16          17

   16    0.5565920
   17   -0.0315930   0.5639541

          TOTAL MULLIKEN AND LOWDIN ATOMIC POPULATIONS
       ATOM         MULL.POP.    CHARGE          LOW.POP.     CHARGE
    1 C             6.482071   -0.482071         6.442155   -0.442155
    2 H             0.844860    0.155140         0.857103    0.142897
    3 H             0.840122    0.159878         0.852772    0.147228
    4 H             0.839199    0.160801         0.852543    0.147457
    5 C             6.477995   -0.477995         6.440501   -0.440501
    6 H             0.839441    0.160559         0.850420    0.149580
    7 H             0.844085    0.155915         0.855063    0.144937
    8 H             0.843862    0.156138         0.856580    0.143420
    9 C             6.306252   -0.306252         6.273078   -0.273078
   10 H             0.842356    0.157644         0.860409    0.139591
   11 H             0.847589    0.152411         0.864287    0.135713
   12 C             6.301954   -0.301954         6.274142   -0.274142
   13 H             0.849698    0.150302         0.865552    0.134448
   14 H             0.845859    0.154141         0.860965    0.139035
   15 C             6.304742   -0.304742         6.272710   -0.272710
   16 H             0.842763    0.157237         0.857742    0.142258
   17 H             0.847153    0.152847         0.863979    0.136021

          MULLIKEN SPHERICAL HARMONIC POPULATIONS
       ATOM           S       P       D      F      G      H      I    TOTAL
    1 C             3.30    3.13    0.05   0.00   0.00   0.00   0.00    6.48
    2 H             0.84    0.00    0.00   0.00   0.00   0.00   0.00    0.84
    3 H             0.84    0.00    0.00   0.00   0.00   0.00   0.00    0.84
    4 H             0.84    0.00    0.00   0.00   0.00   0.00   0.00    0.84
    5 C             3.30    3.13    0.05   0.00   0.00   0.00   0.00    6.48
    6 H             0.84    0.00    0.00   0.00   0.00   0.00   0.00    0.84
    7 H             0.84    0.00    0.00   0.00   0.00   0.00   0.00    0.84
    8 H             0.84    0.00    0.00   0.00   0.00   0.00   0.00    0.84
    9 C             3.26    2.99    0.05   0.00   0.00   0.00   0.00    6.31
   10 H             0.84    0.00    0.00   0.00   0.00   0.00   0.00    0.84
   11 H             0.85    0.00    0.00   0.00   0.00   0.00   0.00    0.85
   12 C             3.26    2.99    0.05   0.00   0.00   0.00   0.00    6.30
   13 H             0.85    0.00    0.00   0.00   0.00   0.00   0.00    0.85
   14 H             0.85    0.00    0.00   0.00   0.00   0.00   0.00    0.85
   15 C             3.26    2.99    0.05   0.00   0.00   0.00   0.00    6.30
   16 H             0.84    0.00    0.00   0.00   0.00   0.00   0.00    0.84
   17 H             0.85    0.00    0.00   0.00   0.00   0.00   0.00    0.85

          -------------------------------
          BOND ORDER AND VALENCE ANALYSIS     BOND ORDER THRESHOLD=0.050
          -------------------------------

                   BOND                       BOND                       BOND
  ATOM PAIR DIST  ORDER      ATOM PAIR DIST  ORDER      ATOM PAIR DIST  ORDER
    1   2  1.087  0.960        1   3  1.085  0.959        1   4  1.086  0.963
    1  15  1.530  0.975        5   6  1.086  0.963        5   7  1.086  0.960
    5   8  1.086  0.960        5   9  1.529  0.980        9  10  1.086  0.958
    9  11  1.088  0.959        9  12  1.531  0.975       12  13  1.089  0.956
   12  14  1.088  0.961       12  15  1.533  0.980       15  16  1.087  0.962
   15  17  1.088  0.958

                       TOTAL       BONDED        FREE
      ATOM            VALENCE     VALENCE     VALENCE
    1 C                 3.811       3.811      -0.000
    2 H                 0.933       0.933       0.000
    3 H                 0.931       0.931      -0.000
    4 H                 0.932       0.932       0.000
    5 C                 3.815       3.815       0.000
    6 H                 0.932       0.932      -0.000
    7 H                 0.933       0.933       0.000
    8 H                 0.932       0.932       0.000
    9 C                 3.791       3.791      -0.000
   10 H                 0.927       0.927      -0.000
   11 H                 0.929       0.929      -0.000
   12 C                 3.777       3.777      -0.000
   13 H                 0.931       0.931      -0.000
   14 H                 0.929       0.929      -0.000
   15 C                 3.795       3.795       0.000
   16 H                 0.927       0.927      -0.000
   17 H                 0.929       0.929       0.000

          ---------------------
          ELECTROSTATIC MOMENTS
          ---------------------

 POINT   1           X           Y           Z (BOHR)    CHARGE
                -0.000000   -0.000000    0.000000        0.00 (A.U.)
         DX          DY          DZ         /D/  (DEBYE)
    -0.031726    0.025991   -0.035562    0.054284
 ...... END OF PROPERTY EVALUATION ......
 CPU     0: STEP CPU TIME=     0.02 TOTAL CPU TIME=        9.9 (    0.2 MIN)
 TOTAL WALL CLOCK TIME=       10.2 SECONDS, CPU UTILIZATION IS  96.76%
  $VIB   
          IVIB=   0 IATOM=   0 ICOORD=   0 E=     -196.3315058191
 -3.860206757E-07-4.833327113E-07-2.305080725E-07 2.247848222E-07 1.222379040E-10
  6.154421135E-11 6.393183712E-08 5.137320550E-08 4.185041942E-08-3.649440304E-08
  3.064943147E-07 3.095422114E-07-2.979784217E-07 8.503862546E-09-2.188807403E-07
  3.523095933E-08-1.399483522E-07 2.535309022E-07 9.622171888E-08-1.574977474E-08
  3.666710280E-08 1.902256450E-11 3.464280297E-08 3.614455689E-08 4.990878356E-07
  4.291844724E-07-7.646934448E-07 1.175612031E-07 7.233024337E-08 4.142660269E-07
 -3.106555440E-07-2.630831447E-07 9.184578752E-12-3.819364419E-07 3.884730232E-07
  6.856985649E-08-2.130297289E-08-3.459371885E-07-1.303715075E-08 1.444853893E-07
  3.522918848E-10 3.817605764E-07 1.138476497E-07 2.125488987E-07-3.828599888E-07
 -6.936427089E-08-8.000886187E-08 6.774734895E-08 2.085822923E-07-1.759653199E-07
 -1.703331546E-10
 -3.172602480E-02 2.599101647E-02-3.556202205E-02
 ......END OF GEOMETRY SEARCH......
 CPU     0: STEP CPU TIME=     0.00 TOTAL CPU TIME=        9.9 (    0.2 MIN)
 TOTAL WALL CLOCK TIME=       10.2 SECONDS, CPU UTILIZATION IS  96.76%
              1133387  WORDS OF DYNAMIC MEMORY USED
 EXECUTION OF GAMESS TERMINATED NORMALLY Thu Jan 18 12:03:32 2018
 DDI: 263624 bytes (0.3 MB / 0 MWords) used by master data server.

 ----------------------------------------
 CPU timing information for all processes
 ========================================
 0: 8.595 + 1.300 = 9.896
 1: 8.436 + 1.129 = 9.566
 2: 8.477 + 1.136 = 9.614
 3: 8.450 + 1.100 = 9.551
 4: 8.500 + 1.185 = 9.686
 5: 8.597 + 1.109 = 9.707
 6: 8.591 + 1.39 = 9.631
 7: 8.498 + 1.118 = 9.617
 ----------------------------------------
 ddikick.x: exited gracefully.
unset echo
----- accounting info -----
Files used on the master node wr35 were:
-rw-r--r-- 1 kkirsc3m fb03-hpc  1031766 Jan 18 12:03 /tmp/8024.wr0.wr.inf.h-brs.de/molecule-2-gam.dat
-rw-r--r-- 1 kkirsc3m fb03-hpc     1262 Jan 18 12:03 /tmp/8024.wr0.wr.inf.h-brs.de/molecule-2-gam.F05
-rw-r--r-- 1 kkirsc3m fb03-hpc 14041248 Jan 18 12:03 /tmp/8024.wr0.wr.inf.h-brs.de/molecule-2-gam.F08
-rw-r--r-- 1 kkirsc3m fb03-hpc 16741488 Jan 18 12:03 /tmp/8024.wr0.wr.inf.h-brs.de/molecule-2-gam.F08.001
-rw-r--r-- 1 kkirsc3m fb03-hpc 15121344 Jan 18 12:03 /tmp/8024.wr0.wr.inf.h-brs.de/molecule-2-gam.F08.002
-rw-r--r-- 1 kkirsc3m fb03-hpc 15301360 Jan 18 12:03 /tmp/8024.wr0.wr.inf.h-brs.de/molecule-2-gam.F08.003
-rw-r--r-- 1 kkirsc3m fb03-hpc 14761312 Jan 18 12:03 /tmp/8024.wr0.wr.inf.h-brs.de/molecule-2-gam.F08.004
-rw-r--r-- 1 kkirsc3m fb03-hpc 13141168 Jan 18 12:03 /tmp/8024.wr0.wr.inf.h-brs.de/molecule-2-gam.F08.005
-rw-r--r-- 1 kkirsc3m fb03-hpc 12601120 Jan 18 12:03 /tmp/8024.wr0.wr.inf.h-brs.de/molecule-2-gam.F08.006
-rw-r--r-- 1 kkirsc3m fb03-hpc 15841408 Jan 18 12:03 /tmp/8024.wr0.wr.inf.h-brs.de/molecule-2-gam.F08.007
-rw-r--r-- 1 kkirsc3m fb03-hpc  2683040 Jan 18 12:03 /tmp/8024.wr0.wr.inf.h-brs.de/molecule-2-gam.F10
ls: No match.
ls: No match.
ls: No match.
Thu Jan 18 12:03:35 CET 2018
0.179u 0.187s 0:13.70 2.5%	0+0k 2512+192io 10pf+0w
