    -----------------------------------------------------------------------
          Psi4: An Open-Source Ab Initio Electronic Structure Package
                              Psi4 1.0.0 Driver

                          Git: Rev {master} 6a9a71b dirty

    J. M. Turney, A. C. Simmonett, R. M. Parrish, E. G. Hohenstein,
    F. A. Evangelista, J. T. Fermann, B. J. Mintz, L. A. Burns, J. J. Wilke,
    M. L. Abrams, N. J. Russ, M. L. Leininger, C. L. Janssen, E. T. Seidl,
    W. D. Allen, H. F. Schaefer, R. A. King, E. F. Valeev, C. D. Sherrill,
    and T. D. Crawford, WIREs Comput. Mol. Sci. 2, 556-565 (2012)
    (doi: 10.1002/wcms.93)

                         Additional Contributions by
    A. E. DePrince, U. Bozkaya, A. Yu. Sokolov, D. G. A. Smith, R. Di Remigio,
    R. M. Richard, J. F. Gonthier, H. R. McAlexander, M. Saitow, and
    B. P. Pritchard
    -----------------------------------------------------------------------


    Psi4 started on: Mon Sep 26 21:13:28 2016

    Process ID:  11248
    PSI4DATADIR: /usr/local/hpc5/psi4conda/share/psi4
    Memory level set to 256.000 MB

  ==> Input File <==

--------------------------------------------------------------------------
memory 35 Gb

molecule molecule_01_psi {
0 1
    C            4.453195629309    -0.267480458757    -0.000091896544
    H            5.330931402329     0.378294856259    -0.000116044329
    H            4.508280058514    -0.908592965948    -0.880741764502
    H            4.508316467356    -0.908576568711     0.880567648400
    C           -4.453196354276     0.267476132037     0.000094392207
    H           -4.508320381209     0.908570813892    -0.880565851794
    H           -4.508280885987     0.908589541557     0.880743480025
    H           -5.330930294018    -0.378301619528     0.000120944504
    C            3.160479588410     0.539038763698    -0.000072669676
    H            3.132822973176     1.192920499631    -0.875746358400
    H            3.132859203751     1.192936829309     0.875589993077
    C           -3.160478114308    -0.539039694901     0.000073955086
    H           -3.132818214346    -1.192920133352     0.875748465808
    H           -3.132857372887    -1.192938567053    -0.875588003376
    C            1.921224008678    -0.347023124161    -0.000038820847
    H            1.946615411549    -1.002461320543     0.876524048456
    H            1.946578695015    -1.002477065812    -0.876590961687
    C            0.619287870282     0.443473725199    -0.000018676406
    H            0.594305823613     1.098628105992    -0.876633433146
    H            0.594343456144     1.098645382945     0.876584259115
    C           -0.619287740533    -0.443470111053     0.000016655147
    H           -0.594343303963    -1.098641696970    -0.876586379367
    H           -0.594305585351    -1.098624442877     0.876631539430
    C           -1.921224822770     0.347025281548     0.000036871873
    H           -1.946579735074     1.002480612904     0.876587750003
    H           -1.946618490071     1.002461622852    -0.876527079917
}

set globals {
  reference rhf
  basis aug-cc-pVTZ
  scf_type df
  cc_type df
  freeze_core true
}
energy('ccsd(t)')
--------------------------------------------------------------------------
/usr/local/hpc5/psi4conda/lib/python2.7/site-packages/v2rdm_casscf/v2rdm_casscf.so loaded.

  Memory set to  35.000 GiB by Python script.

*** tstart() called on wr36
*** at Mon Sep 26 21:13:28 2016


         ---------------------------------------------------------
                                   SCF
            by Justin Turney, Rob Parrish, and Andy Simmonett
                              RHF Reference
                       32 Threads,  35000 MiB Core
         ---------------------------------------------------------

  ==> Geometry <==

    Molecular point group: c1
    Full point group: C1

    Geometry (in Angstrom), charge = 0, multiplicity = 1:

       Center              X                  Y                   Z               Mass       
    ------------   -----------------  -----------------  -----------------  -----------------
           C          4.453195629309    -0.267480458757    -0.000091896544    12.000000000000
           H          5.330931402329     0.378294856259    -0.000116044329     1.007825032070
           H          4.508280058514    -0.908592965948    -0.880741764502     1.007825032070
           H          4.508316467356    -0.908576568711     0.880567648400     1.007825032070
           C         -4.453196354276     0.267476132037     0.000094392207    12.000000000000
           H         -4.508320381209     0.908570813892    -0.880565851794     1.007825032070
           H         -4.508280885987     0.908589541557     0.880743480025     1.007825032070
           H         -5.330930294018    -0.378301619528     0.000120944504     1.007825032070
           C          3.160479588410     0.539038763698    -0.000072669676    12.000000000000
           H          3.132822973176     1.192920499631    -0.875746358400     1.007825032070
           H          3.132859203751     1.192936829309     0.875589993077     1.007825032070
           C         -3.160478114308    -0.539039694901     0.000073955086    12.000000000000
           H         -3.132818214346    -1.192920133352     0.875748465808     1.007825032070
           H         -3.132857372887    -1.192938567053    -0.875588003376     1.007825032070
           C          1.921224008678    -0.347023124161    -0.000038820847    12.000000000000
           H          1.946615411549    -1.002461320543     0.876524048456     1.007825032070
           H          1.946578695015    -1.002477065812    -0.876590961687     1.007825032070
           C          0.619287870282     0.443473725199    -0.000018676406    12.000000000000
           H          0.594305823613     1.098628105992    -0.876633433146     1.007825032070
           H          0.594343456144     1.098645382945     0.876584259115     1.007825032070
           C         -0.619287740533    -0.443470111053     0.000016655147    12.000000000000
           H         -0.594343303963    -1.098641696970    -0.876586379367     1.007825032070
           H         -0.594305585351    -1.098624442877     0.876631539430     1.007825032070
           C         -1.921224822770     0.347025281548     0.000036871873    12.000000000000
           H         -1.946579735074     1.002480612904     0.876587750003     1.007825032070
           H         -1.946618490071     1.002461622852    -0.876527079917     1.007825032070

  Running in c1 symmetry.

  Rotational constants: A =      0.35880  B =      0.01651  C =      0.01615 [cm^-1]
  Rotational constants: A =  10756.41509  B =    494.81134  C =    484.30449 [MHz]
  Nuclear repulsion =  376.097330561596777

  Charge       = 0
  Multiplicity = 1
  Electrons    = 66
  Nalpha       = 33
  Nbeta        = 33

  ==> Algorithm <==

  SCF Algorithm Type is DF.
  DIIS enabled.
  MOM disabled.
  Fractional occupation disabled.
  Guess Type is SAD.
  Energy threshold   = 1.00e-08
  Density threshold  = 1.00e-08
  Integral threshold = 0.00e+00

  ==> Primary Basis <==

  Basis Set: AUG-CC-PVTZ
    Number of shells: 274
    Number of basis function: 782
    Number of Cartesian functions: 890
    Spherical Harmonics?: true
    Max angular momentum: 3

  ==> Pre-Iterations <==

   -------------------------------------------------------
    Irrep   Nso     Nmo     Nalpha   Nbeta   Ndocc  Nsocc
   -------------------------------------------------------
     A        782     782       0       0       0       0
   -------------------------------------------------------
    Total     782     782      33      33      33       0
   -------------------------------------------------------

  ==> Integral Setup <==

  ==> DFJK: Density-Fitted J/K Matrices <==

    J tasked:                  Yes
    K tasked:                  Yes
    wK tasked:                  No
    OpenMP threads:             32
    Integrals threads:          32
    Memory (MB):             25033
    Algorithm:                Core
    Integral Cache:           SAVE
    Schwarz Cutoff:          1E-12
    Fitting Condition:       1E-12

   => Auxiliary Basis Set <=

  Basis Set: 
    Number of shells: 492
    Number of basis function: 1660
    Number of Cartesian functions: 2038
    Spherical Harmonics?: true
    Max angular momentum: 4

  Minimum eigenvalue in the overlap matrix is 2.7819416555E-06.
  Using Symmetric Orthogonalization.
  SCF Guess: Superposition of Atomic Densities via on-the-fly atomic UHF.

  ==> Iterations <==

                           Total Energy        Delta E     RMS |[F,P]|

   @DF-RHF iter   0:  -316.29945312675909   -3.16299e+02   6.69489e-03 
   @DF-RHF iter   1:  -313.18658988138873    3.11286e+00   9.23961e-04 
   @DF-RHF iter   2:  -313.48932020975622   -3.02730e-01   3.81491e-04 DIIS
   @DF-RHF iter   3:  -313.54109405969177   -5.17738e-02   1.06416e-04 DIIS
   @DF-RHF iter   4:  -313.54785996215082   -6.76590e-03   1.51959e-05 DIIS
   @DF-RHF iter   5:  -313.54800371351155   -1.43751e-04   4.68608e-06 DIIS
   @DF-RHF iter   6:  -313.54801519111186   -1.14776e-05   1.23728e-06 DIIS
   @DF-RHF iter   7:  -313.54801615099848   -9.59887e-07   2.29839e-07 DIIS
   @DF-RHF iter   8:  -313.54801619131456   -4.03161e-08   5.82486e-08 DIIS
   @DF-RHF iter   9:  -313.54801619333398   -2.01942e-09   1.81750e-08 DIIS
   @DF-RHF iter  10:  -313.54801619350519   -1.71212e-10   4.85319e-09 DIIS

  ==> Post-Iterations <==

    Orbital Energies (a.u.)
    -----------------------

    Doubly Occupied:                                                      

       1A    -11.212396     2A    -11.212396     3A    -11.210460  
       4A    -11.210161     5A    -11.209778     6A    -11.209448  
       7A    -11.207002     8A    -11.207002     9A     -1.092804  
      10A     -1.062602    11A     -1.013520    12A     -0.949519  
      13A     -0.877299    14A     -0.811766    15A     -0.784926  
      16A     -0.782054    17A     -0.657651    18A     -0.631169  
      19A     -0.596792    20A     -0.590962    21A     -0.573060  
      22A     -0.567244    23A     -0.544481    24A     -0.531460  
      25A     -0.501830    26A     -0.494158    27A     -0.492660  
      28A     -0.472361    29A     -0.467061    30A     -0.459211  
      31A     -0.457505    32A     -0.456274    33A     -0.426943  

    Virtual:                                                              

      34A      0.030979    35A      0.031409    36A      0.035403  
      37A      0.037273    38A      0.043231    39A      0.046414  
      40A      0.047717    41A      0.054647    42A      0.060212  
      43A      0.065674    44A      0.065994    45A      0.069885  
      46A      0.082418    47A      0.087246    48A      0.088417  
      49A      0.091857    50A      0.098972    51A      0.104949  
      52A      0.109959    53A      0.110875    54A      0.113314  
      55A      0.120271    56A      0.124077    57A      0.129064  
      58A      0.133647    59A      0.136602    60A      0.142028  
      61A      0.146869    62A      0.146952    63A      0.157242  
      64A      0.158877    65A      0.163217    66A      0.165334  
      67A      0.174383    68A      0.174908    69A      0.179210  
      70A      0.181049    71A      0.190190    72A      0.192211  
      73A      0.195383    74A      0.197411    75A      0.208294  
      76A      0.212952    77A      0.217781    78A      0.225963  
      79A      0.228058    80A      0.240667    81A      0.243975  
      82A      0.246876    83A      0.255452    84A      0.255481  
      85A      0.260161    86A      0.261792    87A      0.262467  
      88A      0.268461    89A      0.283813    90A      0.284983  
      91A      0.291907    92A      0.292513    93A      0.297593  
      94A      0.305934    95A      0.309174    96A      0.320428  
      97A      0.320773    98A      0.321343    99A      0.331422  
     100A      0.343153   101A      0.343212   102A      0.348338  
     103A      0.356395   104A      0.357639   105A      0.359323  
     106A      0.366774   107A      0.366777   108A      0.372175  
     109A      0.375114   110A      0.375323   111A      0.376181  
     112A      0.377603   113A      0.388235   114A      0.391418  
     115A      0.392727   116A      0.393359   117A      0.398154  
     118A      0.401753   119A      0.402202   120A      0.408661  
     121A      0.409373   122A      0.413639   123A      0.415103  
     124A      0.419276   125A      0.422120   126A      0.427017  
     127A      0.428519   128A      0.433379   129A      0.433900  
     130A      0.434003   131A      0.439842   132A      0.443663  
     133A      0.452479   134A      0.459333   135A      0.461129  
     136A      0.462490   137A      0.467615   138A      0.470127  
     139A      0.475038   140A      0.480367   141A      0.483192  
     142A      0.486151   143A      0.495483   144A      0.495965  
     145A      0.497057   146A      0.500429   147A      0.501304  
     148A      0.508345   149A      0.508467   150A      0.509364  
     151A      0.512787   152A      0.514975   153A      0.518262  
     154A      0.520852   155A      0.526133   156A      0.527315  
     157A      0.536815   158A      0.538856   159A      0.554881  
     160A      0.558008   161A      0.561486   162A      0.566703  
     163A      0.569752   164A      0.573411   165A      0.574259  
     166A      0.575804   167A      0.584473   168A      0.594206  
     169A      0.594366   170A      0.600641   171A      0.601494  
     172A      0.607838   173A      0.620208   174A      0.620332  
     175A      0.621166   176A      0.633564   177A      0.637589  
     178A      0.641305   179A      0.653965   180A      0.657948  
     181A      0.660018   182A      0.668113   183A      0.670311  
     184A      0.673950   185A      0.690977   186A      0.691158  
     187A      0.691930   188A      0.692709   189A      0.708884  
     190A      0.718565   191A      0.726256   192A      0.729430  
     193A      0.742372   194A      0.751026   195A      0.768444  
     196A      0.768696   197A      0.777917   198A      0.780150  
     199A      0.794193   200A      0.800635   201A      0.812928  
     202A      0.818089   203A      0.818533   204A      0.821581  
     205A      0.835557   206A      0.839131   207A      0.842193  
     208A      0.843444   209A      0.847080   210A      0.856756  
     211A      0.857957   212A      0.858181   213A      0.869164  
     214A      0.877741   215A      0.882625   216A      0.883888  
     217A      0.890553   218A      0.892212   219A      0.895068  
     220A      0.895261   221A      0.904992   222A      0.907458  
     223A      0.908384   224A      0.916876   225A      0.919935  
     226A      0.923216   227A      0.931618   228A      0.931797  
     229A      0.937734   230A      0.939691   231A      0.940271  
     232A      0.942000   233A      0.957509   234A      0.964660  
     235A      0.967778   236A      0.968209   237A      0.975252  
     238A      0.976223   239A      0.982959   240A      0.990971  
     241A      0.992640   242A      0.993323   243A      1.005245  
     244A      1.006514   245A      1.010307   246A      1.016005  
     247A      1.023916   248A      1.024016   249A      1.037705  
     250A      1.040148   251A      1.040772   252A      1.044993  
     253A      1.048434   254A      1.060605   255A      1.072003  
     256A      1.080707   257A      1.095367   258A      1.095730  
     259A      1.096274   260A      1.109197   261A      1.117506  
     262A      1.120897   263A      1.123988   264A      1.127827  
     265A      1.130200   266A      1.132589   267A      1.148547  
     268A      1.162118   269A      1.162238   270A      1.162672  
     271A      1.167870   272A      1.168819   273A      1.171658  
     274A      1.172742   275A      1.179658   276A      1.180917  
     277A      1.187003   278A      1.187459   279A      1.188371  
     280A      1.188646   281A      1.193871   282A      1.199194  
     283A      1.201829   284A      1.214319   285A      1.219568  
     286A      1.232819   287A      1.240680   288A      1.250273  
     289A      1.255614   290A      1.256962   291A      1.257079  
     292A      1.260448   293A      1.261050   294A      1.276502  
     295A      1.281606   296A      1.283134   297A      1.289373  
     298A      1.294105   299A      1.300783   300A      1.300925  
     301A      1.315631   302A      1.317423   303A      1.317497  
     304A      1.321893   305A      1.323161   306A      1.330241  
     307A      1.333454   308A      1.344571   309A      1.351438  
     310A      1.354694   311A      1.357960   312A      1.368557  
     313A      1.372562   314A      1.388681   315A      1.395283  
     316A      1.415578   317A      1.420507   318A      1.423907  
     319A      1.429524   320A      1.439840   321A      1.453622  
     322A      1.457763   323A      1.462689   324A      1.476886  
     325A      1.498076   326A      1.504079   327A      1.512827  
     328A      1.526874   329A      1.531844   330A      1.554898  
     331A      1.560319   332A      1.560486   333A      1.570803  
     334A      1.570916   335A      1.571025   336A      1.571678  
     337A      1.580061   338A      1.581549   339A      1.594521  
     340A      1.595793   341A      1.604358   342A      1.607951  
     343A      1.617536   344A      1.629337   345A      1.638932  
     346A      1.640470   347A      1.652005   348A      1.655970  
     349A      1.662206   350A      1.668606   351A      1.675041  
     352A      1.686320   353A      1.686419   354A      1.691079  
     355A      1.694639   356A      1.696340   357A      1.703051  
     358A      1.708658   359A      1.718558   360A      1.721286  
     361A      1.722671   362A      1.729164   363A      1.734001  
     364A      1.743519   365A      1.746017   366A      1.749613  
     367A      1.750589   368A      1.762173   369A      1.762885  
     370A      1.772814   371A      1.780656   372A      1.781025  
     373A      1.782720   374A      1.783171   375A      1.790357  
     376A      1.792393   377A      1.793693   378A      1.797375  
     379A      1.815033   380A      1.819896   381A      1.824674  
     382A      1.831686   383A      1.839796   384A      1.846426  
     385A      1.851832   386A      1.855346   387A      1.860037  
     388A      1.867467   389A      1.874113   390A      1.881576  
     391A      1.892016   392A      1.892493   393A      1.895936  
     394A      1.898780   395A      1.903568   396A      1.924460  
     397A      1.936212   398A      1.941818   399A      1.944532  
     400A      1.948371   401A      1.952308   402A      1.968109  
     403A      1.979786   404A      1.990466   405A      2.007743  
     406A      2.008010   407A      2.009704   408A      2.017843  
     409A      2.020538   410A      2.032316   411A      2.032814  
     412A      2.042285   413A      2.050287   414A      2.057614  
     415A      2.058780   416A      2.059396   417A      2.061382  
     418A      2.074950   419A      2.096382   420A      2.102554  
     421A      2.105308   422A      2.120646   423A      2.126243  
     424A      2.137223   425A      2.144725   426A      2.152149  
     427A      2.161658   428A      2.185572   429A      2.196457  
     430A      2.228018   431A      2.229122   432A      2.232635  
     433A      2.242658   434A      2.243296   435A      2.243673  
     436A      2.250481   437A      2.250603   438A      2.261943  
     439A      2.264820   440A      2.285075   441A      2.297117  
     442A      2.304268   443A      2.309662   444A      2.313114  
     445A      2.319914   446A      2.326360   447A      2.342753  
     448A      2.346015   449A      2.352655   450A      2.354921  
     451A      2.367168   452A      2.377535   453A      2.400086  
     454A      2.416409   455A      2.420716   456A      2.421407  
     457A      2.431207   458A      2.440088   459A      2.451993  
     460A      2.464392   461A      2.471937   462A      2.492281  
     463A      2.495274   464A      2.495823   465A      2.500489  
     466A      2.508754   467A      2.509670   468A      2.532258  
     469A      2.573298   470A      2.575676   471A      2.577183  
     472A      2.589751   473A      2.640827   474A      2.641814  
     475A      2.650865   476A      2.658716   477A      2.714188  
     478A      2.729842   479A      2.734148   480A      2.750462  
     481A      2.778397   482A      2.886437   483A      2.887222  
     484A      2.925265   485A      2.983508   486A      2.987175  
     487A      2.989094   488A      2.997129   489A      3.061098  
     490A      3.077858   491A      3.131032   492A      3.137214  
     493A      3.216138   494A      3.252834   495A      3.303232  
     496A      3.333576   497A      3.382795   498A      3.427305  
     499A      3.432204   500A      3.452489   501A      3.467723  
     502A      3.511318   503A      3.514053   504A      3.514160  
     505A      3.525364   506A      3.528372   507A      3.530189  
     508A      3.534553   509A      3.538398   510A      3.568494  
     511A      3.569701   512A      3.594087   513A      3.594451  
     514A      3.604300   515A      3.617824   516A      3.623422  
     517A      3.625237   518A      3.629969   519A      3.652223  
     520A      3.665905   521A      3.674404   522A      3.688327  
     523A      3.691316   524A      3.697694   525A      3.712332  
     526A      3.718015   527A      3.725957   528A      3.728198  
     529A      3.753033   530A      3.758532   531A      3.758925  
     532A      3.775676   533A      3.778395   534A      3.791173  
     535A      3.795212   536A      3.797778   537A      3.811872  
     538A      3.812315   539A      3.812425   540A      3.845422  
     541A      3.847522   542A      3.852469   543A      3.864915  
     544A      3.876581   545A      3.877096   546A      3.877342  
     547A      3.885751   548A      3.888278   549A      3.898248  
     550A      3.903942   551A      3.912566   552A      3.918778  
     553A      3.928394   554A      3.952037   555A      3.952220  
     556A      3.965332   557A      3.965721   558A      3.966203  
     559A      3.968261   560A      3.980127   561A      3.982594  
     562A      3.988303   563A      3.998671   564A      3.999605  
     565A      4.011722   566A      4.019986   567A      4.022669  
     568A      4.030524   569A      4.051934   570A      4.053474  
     571A      4.060534   572A      4.065758   573A      4.077695  
     574A      4.080843   575A      4.086229   576A      4.088112  
     577A      4.096788   578A      4.132870   579A      4.138110  
     580A      4.164920   581A      4.181120   582A      4.184828  
     583A      4.197752   584A      4.208875   585A      4.210790  
     586A      4.218608   587A      4.240752   588A      4.251256  
     589A      4.251553   590A      4.261732   591A      4.263273  
     592A      4.264576   593A      4.278109   594A      4.283665  
     595A      4.297375   596A      4.307046   597A      4.307720  
     598A      4.317101   599A      4.341717   600A      4.357974  
     601A      4.358347   602A      4.366768   603A      4.383186  
     604A      4.408384   605A      4.410274   606A      4.411275  
     607A      4.414742   608A      4.435295   609A      4.448454  
     610A      4.450379   611A      4.487137   612A      4.515877  
     613A      4.521767   614A      4.540871   615A      4.547318  
     616A      4.573147   617A      4.579987   618A      4.587719  
     619A      4.594590   620A      4.599385   621A      4.619677  
     622A      4.634389   623A      4.641992   624A      4.649369  
     625A      4.662837   626A      4.675350   627A      4.686395  
     628A      4.712023   629A      4.716516   630A      4.729359  
     631A      4.733998   632A      4.739732   633A      4.741676  
     634A      4.749412   635A      4.780288   636A      4.784510  
     637A      4.795592   638A      4.797457   639A      4.805113  
     640A      4.805639   641A      4.815152   642A      4.832010  
     643A      4.848763   644A      4.854572   645A      4.864963  
     646A      4.865914   647A      4.875125   648A      4.893918  
     649A      4.899270   650A      4.904499   651A      4.936544  
     652A      4.944056   653A      4.949059   654A      4.950973  
     655A      4.988238   656A      4.994510   657A      4.997208  
     658A      5.000206   659A      5.017356   660A      5.029610  
     661A      5.038931   662A      5.086248   663A      5.087606  
     664A      5.089458   665A      5.111247   666A      5.114813  
     667A      5.135001   668A      5.144168   669A      5.146688  
     670A      5.164208   671A      5.178295   672A      5.204033  
     673A      5.209075   674A      5.222373   675A      5.222958  
     676A      5.242415   677A      5.245833   678A      5.259683  
     679A      5.264204   680A      5.270060   681A      5.283842  
     682A      5.286946   683A      5.316690   684A      5.324784  
     685A      5.344865   686A      5.347645   687A      5.347729  
     688A      5.358702   689A      5.363863   690A      5.372869  
     691A      5.404780   692A      5.409446   693A      5.422112  
     694A      5.424366   695A      5.429122   696A      5.435737  
     697A      5.440945   698A      5.446538   699A      5.463938  
     700A      5.470868   701A      5.491603   702A      5.506735  
     703A      5.509474   704A      5.537251   705A      5.537385  
     706A      5.558970   707A      5.576534   708A      5.578511  
     709A      5.601661   710A      5.603374   711A      5.610618  
     712A      5.612509   713A      5.643699   714A      5.647447  
     715A      5.649485   716A      5.692330   717A      5.707532  
     718A      5.710995   719A      5.726098   720A      5.733114  
     721A      5.769822   722A      5.774940   723A      5.783436  
     724A      5.792730   725A      5.826563   726A      5.832097  
     727A      5.860921   728A      5.864184   729A      5.870410  
     730A      5.893673   731A      5.907187   732A      5.944166  
     733A      5.945215   734A      5.969315   735A      5.975417  
     736A      6.002858   737A      6.021402   738A      6.021519  
     739A      6.041446   740A      6.089907   741A      6.117326  
     742A      6.163899   743A      6.173159   744A      6.178536  
     745A      6.184631   746A      6.199063   747A      6.217726  
     748A      6.222347   749A      6.236025   750A      6.251722  
     751A      6.270460   752A      6.277213   753A      6.288237  
     754A      6.316069   755A      6.324076   756A      6.326326  
     757A      6.424531   758A      6.434176   759A      6.501444  
     760A      6.529146   761A      6.611980   762A      6.612944  
     763A      6.701786   764A      6.709836   765A      6.753827  
     766A      6.775520   767A      6.816215   768A      6.842899  
     769A      6.866335   770A      6.866897   771A      6.868269  
     772A      6.931693   773A      7.047485   774A      7.131591  
     775A     17.826107   776A     17.992055   777A     18.105095  
     778A     18.427840   779A     18.468850   780A     18.520924  
     781A     19.071627   782A     19.590651  

    Final Occupation by Irrep:
              A 
    DOCC [    33 ]

  Energy converged.

  @DF-RHF Final Energy:  -313.54801619350519

   => Energetics <=

    Nuclear Repulsion Energy =            376.0973305615967774
    One-Electron Energy =               -1167.3427792503000546
    Two-Electron Energy =                 477.6974324951981998
    DFT Exchange-Correlation Energy =       0.0000000000000000
    Empirical Dispersion Energy =           0.0000000000000000
    PCM Polarization Energy =               0.0000000000000000
    EFP Energy =                            0.0000000000000000
    Total Energy =                       -313.5480161935050774


  Saving occupied orbitals to File 180.

*** tstop() called on wr36 at Mon Sep 26 21:14:10 2016
Module time:
	user time   =     885.84 seconds =      14.76 minutes
	system time =      17.03 seconds =       0.28 minutes
	total time  =         42 seconds =       0.70 minutes
Total time:
	user time   =     885.84 seconds =      14.76 minutes
	system time =      17.03 seconds =       0.28 minutes
	total time  =         42 seconds =       0.70 minutes


Properties will be evaluated at   0.000000,   0.000000,   0.000000 Bohr

Properties computed using the SCF density matrix

  Nuclear Dipole Moment: (a.u.)
     X:    -0.0000      Y:    -0.0000      Z:     0.0000

  Electronic Dipole Moment: (a.u.)
     X:     0.0000      Y:     0.0000      Z:    -0.0000

  Dipole Moment: (a.u.)
     X:    -0.0000      Y:     0.0000      Z:    -0.0000     Total:     0.0000

  Dipole Moment: (Debye)
     X:    -0.0000      Y:     0.0000      Z:    -0.0000     Total:     0.0000


*** tstart() called on wr36
*** at Mon Sep 26 21:14:10 2016



        *******************************************************
        *                                                     *
        *                       DF-CCSD                       *
        *                 Density-fitted CCSD                 *
        *                                                     *
        *                   Eugene DePrince                   *
        *                                                     *
        *******************************************************


  ==> 3-index integrals <==

  ==> DF Tensor (by Rob Parrish) <==

 => Primary Basis Set <= 

  Basis Set: AUG-CC-PVTZ
    Number of shells: 274
    Number of basis function: 782
    Number of Cartesian functions: 890
    Spherical Harmonics?: true
    Max angular momentum: 3

 => Auxiliary Basis Set <= 

  Basis Set: 
    Number of shells: 476
    Number of basis function: 1676
    Number of Cartesian functions: 2078
    Spherical Harmonics?: true
    Max angular momentum: 4

    Number of auxiliary functions:        1676

  ==> Memory <==

        Total memory available:           33378.60 mb

        CCSD memory requirements:         23385.38 mb
            3-index integrals:             7420.87 mb
            CCSD intermediates:           15964.51 mb

        (T) part (regular algorithm):    313195.72 mb
        <<< warning! >>> switched to low-memory (t) algorithm

        (T) part (low-memory alg.):        5458.63 mb


  ==> Input parameters <==

        Freeze core orbitals?                 yes
        Use frozen natural orbitals?           no
        r_convergence:                  1.000e-07
        e_convergence:                  1.000e-06
        Number of DIIS vectors:                 8
        Number of frozen core orbitals:         8
        Number of active occupied orbitals:    25
        Number of active virtual orbitals:    749
        Number of frozen virtual orbitals:      0


  Begin singles and doubles coupled cluster iterations

   Iter  DIIS          Energy       d(Energy)          |d(T)|     time
      0   0 1   -1.4371667577   -1.4371667577    0.5817657590       71
      1   1 1   -1.4890984785   -0.0519317208    0.0951189784     1605
      2   2 1   -1.5197545432   -0.0306560648    0.0295454022     1610
      3   3 1   -1.5275588696   -0.0078043263    0.0109110826     1595
      4   4 1   -1.5274404389    0.0001184307    0.0023124376     1574
      5   5 1   -1.5275251781   -0.0000847393    0.0007899165     1645
      6   6 1   -1.5275418160   -0.0000166379    0.0001993583     1619
      7   7 1   -1.5275381141    0.0000037018    0.0000637419     1600
      8   8 1   -1.5275380655    0.0000000487    0.0000179744     1755
      9   8 2   -1.5275387822   -0.0000007168    0.0000065789     1776
     10   8 3   -1.5275382995    0.0000004828    0.0000027412     1624
     11   8 4   -1.5275383280   -0.0000000285    0.0000008581     1575
     12   8 5   -1.5275382804    0.0000000477    0.0000003154     1605
     13   8 6   -1.5275382635    0.0000000169    0.0000001028     1622
     14   8 7   -1.5275382616    0.0000000019    0.0000000341     1628

  CCSD iterations converged!

        T1 diagnostic:                        0.008613201907
        D1 diagnostic:                        0.016637619432

        OS MP2 correlation energy:           -1.122732302045
        SS MP2 correlation energy:           -0.314434455607
        MP2 correlation energy:              -1.437166757652
      * MP2 total energy:                  -314.985182951157

        OS CCSD correlation energy:          -1.232978255518
        SS CCSD correlation energy:          -0.294560005934
        CCSD correlation energy:             -1.527538261452
      * CCSD total energy:                 -315.075554454957

  Total time for CCSD iterations:  562851.63 s (user)
                                    19990.08 s (system)
                                       22951 s (total)

  Time per iteration:               40203.69 s (user)
                                     1427.86 s (system)
                                     1639.36 s (total)

*** tstop() called on wr36 at Tue Sep 27 03:39:41 2016
Module time:
	user time   =  563591.70 seconds =    9393.19 minutes
	system time =   20063.48 seconds =     334.39 minutes
	total time  =      23131 seconds =     385.52 minutes
Total time:
	user time   =  564478.01 seconds =    9407.97 minutes
	system time =   20080.52 seconds =     334.68 minutes
	total time  =      23173 seconds =     386.22 minutes

*** tstart() called on wr36
*** at Tue Sep 27 03:43:27 2016


        *******************************************************
        *                                                     *
        *                      CCSD(T)                        *
        *                                                     *
        *******************************************************


        Warning: due to limited available memory,
        using less efficient, low-memory algorithm

        num_threads:                     32
        available memory:       33378.60 mb
        memory requirements:     5458.63 mb

        Number of abc combinations: 70312375

        Computing (T) correction...

        % complete  total time
              10.0      3173 s
              20.0      6303 s
              30.0      9434 s
              40.0     12621 s
              50.0     15816 s
              60.0     18946 s
              70.0     22086 s
              80.0     25220 s
              90.0     28353 s

        (T) energy                            -0.061051973484

        CCSD(T) correlation energy            -1.588590234936
      * CCSD(T) total energy                -315.136606428441


*** tstop() called on wr36 at Tue Sep 27 12:27:49 2016
Module time:
	user time   =  974947.61 seconds =   16249.13 minutes
	system time =   28341.63 seconds =     472.36 minutes
	total time  =      31462 seconds =     524.37 minutes
Total time:
	user time   = 1544513.38 seconds =   25741.89 minutes
	system time =   48633.61 seconds =     810.56 minutes
	total time  =      54861 seconds =     914.35 minutes

*** tstop() called on wr36 at Tue Sep 27 12:27:49 2016
Module time:
	user time   =  974947.85 seconds =   16249.13 minutes
	system time =   28341.65 seconds =     472.36 minutes
	total time  =      31462 seconds =     524.37 minutes
Total time:
	user time   = 1544513.62 seconds =   25741.89 minutes
	system time =   48633.63 seconds =     810.56 minutes
	total time  =      54861 seconds =     914.35 minutes

*** Psi4 exiting successfully. Buy a developer a beer!
