
    -----------------------------------------------------------------------
          Psi4: An Open-Source Ab Initio Electronic Structure Package
                               Psi4 1.1a2.dev170 

                         Git: Rev {master} e4fcd91 dirty


    J. M. Turney, A. C. Simmonett, R. M. Parrish, E. G. Hohenstein,
    F. A. Evangelista, J. T. Fermann, B. J. Mintz, L. A. Burns, J. J. Wilke,
    M. L. Abrams, N. J. Russ, M. L. Leininger, C. L. Janssen, E. T. Seidl,
    W. D. Allen, H. F. Schaefer, R. A. King, E. F. Valeev, C. D. Sherrill,
    and T. D. Crawford, WIREs Comput. Mol. Sci. 2, 556-565 (2012)
    (doi: 10.1002/wcms.93)


                         Additional Contributions by
    A. E. DePrince, U. Bozkaya, A. Yu. Sokolov, D. G. A. Smith, R. Di Remigio,
    R. M. Richard, J. F. Gonthier, H. R. McAlexander, M. Saitow, and
    B. P. Pritchard
    -----------------------------------------------------------------------


    Psi4 started on: Friday, 10 November 2017 10:18AM

    Process ID:   7467
    PSIDATADIR: /usr/local/hpc5/psi4conda/envs/p4env/share/psi4
    Memory:     500.0 MiB
    Threads:    16
    
  ==> Input File <==

--------------------------------------------------------------------------
memory 110 Gb

molecule molecule_1 {
0 1
O           -2.157779962692    -1.013618067921     0.354192379234
H           -2.459532053674    -1.517549474144     1.099093537420
C           -0.790286234394    -0.902316086550     0.407928565045
H           -0.320678712855    -1.883147916155     0.290681629508
O           -0.424699445510    -0.385083386328     1.649680160278
C            0.968251230499    -0.260443048257     1.861808478306
H            1.444148679291    -1.231196233905     1.738809331365
C            1.151206441099     0.192869861424     3.298607035792
H            0.699443464498     1.174404057292     3.423788123684
H            2.204665536726     0.271483694580     3.520313880460
O            0.604183127971    -0.729798975790     4.194454044842
H           -0.320940229747    -0.810687650137     4.005295451831
C            1.534998279156     0.716600710857     0.840243131625
H            1.087429925695     1.694967219951     1.002155885543
O            2.920650251226     0.772412811847     1.011930058307
H            3.284348762227     1.327953725316     0.333624547827
C            1.177549344462     0.263878682483    -0.567053185258
H            1.699282146793    -0.674936941045    -0.759078413150
O            1.644715401717     1.250238091881    -1.441709955429
H            1.328339962996     1.072022889185    -2.318100188710
C           -0.327566597440     0.038321798511    -0.701028186819
H           -0.847654314140     0.976579226808    -0.580603575344
N           -0.657106879310    -0.470890721209    -2.017513516558
H           -0.487930015739    -1.440852110105    -2.173878501819
C           -1.622316181430     0.108942331270    -2.800159803412
O           -2.033704579595     1.214434595384    -2.607769353290
C           -2.111252867341    -0.754714212817    -3.941850606277
H           -2.827703625278    -1.475656222679    -3.559717794636
H           -2.603292023478    -0.128469037731    -4.671151300450
H           -1.300965236299    -1.299534806674    -4.414182589586
}
set globals {
  reference rhf
  g_convergence gau_verytight
  basis 6-31G(d)

}
optimize('scf')
--------------------------------------------------------------------------

  Memory set to 110.000 GiB by Python script.
gradient() will perform analytic gradient computation.

*** tstart() called on wr4
*** at Fri Nov 10 10:18:31 2017


         ---------------------------------------------------------
                                   SCF
            by Justin Turney, Rob Parrish, and Andy Simmonett
                              RHF Reference
                       16 Threads, 110000 MiB Core
         ---------------------------------------------------------

  ==> Geometry <==

    Molecular point group: c1
    Full point group: C1

    Geometry (in Angstrom), charge = 0, multiplicity = 1:

       Center              X                  Y                   Z               Mass       
    ------------   -----------------  -----------------  -----------------  -----------------
           O         -2.157779962692    -1.013618067921     0.354192379234    15.994914619560
           H         -2.459532053674    -1.517549474144     1.099093537420     1.007825032070
           C         -0.790286234394    -0.902316086550     0.407928565045    12.000000000000
           H         -0.320678712855    -1.883147916155     0.290681629508     1.007825032070
           O         -0.424699445510    -0.385083386328     1.649680160278    15.994914619560
           C          0.968251230499    -0.260443048257     1.861808478306    12.000000000000
           H          1.444148679291    -1.231196233905     1.738809331365     1.007825032070
           C          1.151206441099     0.192869861424     3.298607035792    12.000000000000
           H          0.699443464498     1.174404057292     3.423788123684     1.007825032070
           H          2.204665536726     0.271483694580     3.520313880460     1.007825032070
           O          0.604183127971    -0.729798975790     4.194454044842    15.994914619560
           H         -0.320940229747    -0.810687650137     4.005295451831     1.007825032070
           C          1.534998279156     0.716600710857     0.840243131625    12.000000000000
           H          1.087429925695     1.694967219951     1.002155885543     1.007825032070
           O          2.920650251226     0.772412811847     1.011930058307    15.994914619560
           H          3.284348762227     1.327953725316     0.333624547827     1.007825032070
           C          1.177549344462     0.263878682483    -0.567053185258    12.000000000000
           H          1.699282146793    -0.674936941045    -0.759078413150     1.007825032070
           O          1.644715401717     1.250238091881    -1.441709955429    15.994914619560
           H          1.328339962996     1.072022889185    -2.318100188710     1.007825032070
           C         -0.327566597440     0.038321798511    -0.701028186819    12.000000000000
           H         -0.847654314140     0.976579226808    -0.580603575344     1.007825032070
           N         -0.657106879310    -0.470890721209    -2.017513516558    14.003074004780
           H         -0.487930015739    -1.440852110105    -2.173878501819     1.007825032070
           C         -1.622316181430     0.108942331270    -2.800159803412    12.000000000000
           O         -2.033704579595     1.214434595384    -2.607769353290    15.994914619560
           C         -2.111252867341    -0.754714212817    -3.941850606277    12.000000000000
           H         -2.827703625278    -1.475656222679    -3.559717794636     1.007825032070
           H         -2.603292023478    -0.128469037731    -4.671151300450     1.007825032070
           H         -1.300965236299    -1.299534806674    -4.414182589586     1.007825032070

  Running in c1 symmetry.

  Rotational constants: A =      0.03470  B =      0.01212  C =      0.00965 [cm^-1]
  Rotational constants: A =   1040.37232  B =    363.22423  C =    289.22511 [MHz]
  Nuclear repulsion = 1141.228062749358742

  Charge       = 0
  Multiplicity = 1
  Electrons    = 118
  Nalpha       = 59
  Nbeta        = 59

  ==> Algorithm <==

  SCF Algorithm Type is DF.
  DIIS enabled.
  MOM disabled.
  Fractional occupation disabled.
  Guess Type is SAD.
  Energy threshold   = 1.00e-08
  Density threshold  = 1.00e-08
  Integral threshold = 0.00e+00

  ==> Primary Basis <==

  Basis Set: file /usr/local/hpc5/psi4conda/envs/p4env/share/psi4/basis/6-31g_d_.gbs
    Number of shells: 120
    Number of basis function: 255
    Number of Cartesian functions: 255
    Spherical Harmonics?: false
    Max angular momentum: 2

  ==> Pre-Iterations <==

   -------------------------------------------------------
    Irrep   Nso     Nmo     Nalpha   Nbeta   Ndocc  Nsocc
   -------------------------------------------------------
     A        255     255       0       0       0       0
   -------------------------------------------------------
    Total     255     255      59      59      59       0
   -------------------------------------------------------

  ==> Integral Setup <==

  ==> DFJK: Density-Fitted J/K Matrices <==

    J tasked:                  Yes
    K tasked:                  Yes
    wK tasked:                  No
    OpenMP threads:             16
    Integrals threads:          16
    Memory (MB):             78678
    Algorithm:                Core
    Integral Cache:           NONE
    Schwarz Cutoff:          1E-12
    Fitting Condition:       1E-12

   => Auxiliary Basis Set <=

  Basis Set: file /usr/local/hpc5/psi4conda/envs/p4env/share/psi4/basis/cc-pvdz-jkfit.gbs
    Number of shells: 495
    Number of basis function: 1590
    Number of Cartesian functions: 1590
    Spherical Harmonics?: false
    Max angular momentum: 3

  Minimum eigenvalue in the overlap matrix is 1.6106035059E-03.
  Using Symmetric Orthogonalization.

  SCF Guess: Superposition of Atomic Densities via on-the-fly atomic UHF.

  ==> Iterations <==

                           Total Energy        Delta E     RMS |[F,P]|

   @DF-RHF iter   0:  -821.65960378175373   -8.21660e+02   2.81436e-02 
   @DF-RHF iter   1:  -814.81828964168585    6.84131e+00   3.52074e-03 
   @DF-RHF iter   2:  -815.17441833444525   -3.56129e-01   2.04007e-03 DIIS
   @DF-RHF iter   3:  -815.27678761660218   -1.02369e-01   4.82426e-04 DIIS
   @DF-RHF iter   4:  -815.28790159535617   -1.11140e-02   1.53653e-04 DIIS
   @DF-RHF iter   5:  -815.28880336294424   -9.01768e-04   4.97715e-05 DIIS
   @DF-RHF iter   6:  -815.28894053709496   -1.37174e-04   1.73522e-05 DIIS
   @DF-RHF iter   7:  -815.28895869584005   -1.81587e-05   5.55621e-06 DIIS
   @DF-RHF iter   8:  -815.28896092839534   -2.23256e-06   1.99064e-06 DIIS
   @DF-RHF iter   9:  -815.28896127583516   -3.47440e-07   6.40228e-07 DIIS
   @DF-RHF iter  10:  -815.28896131498368   -3.91485e-08   2.48938e-07 DIIS
   @DF-RHF iter  11:  -815.28896132076443   -5.78075e-09   9.00395e-08 DIIS
   @DF-RHF iter  12:  -815.28896132159934   -8.34916e-10   3.21845e-08 DIIS
   @DF-RHF iter  13:  -815.28896132173440   -1.35060e-10   1.29125e-08 DIIS
   @DF-RHF iter  14:  -815.28896132175532   -2.09184e-11   5.43150e-09 DIIS

  ==> Post-Iterations <==

    Orbital Energies (a.u.)
    -----------------------

    Doubly Occupied:                                                      

       1A    -20.588351     2A    -20.586851     3A    -20.575591  
       4A    -20.568868     5A    -20.555701     6A    -20.534293  
       7A    -15.598468     8A    -11.358890     9A    -11.354316  
      10A    -11.292016    11A    -11.289839    12A    -11.286969  
      13A    -11.275488    14A    -11.271383    15A    -11.240587  
      16A     -1.452188    17A     -1.403758    18A     -1.398151  
      19A     -1.379294    20A     -1.369356    21A     -1.357845  
      22A     -1.248692    23A     -1.076062    24A     -1.055316  
      25A     -1.006393    26A     -0.943999    27A     -0.882794  
      28A     -0.857464    29A     -0.824681    30A     -0.797209  
      31A     -0.763012    32A     -0.731714    33A     -0.725221  
      34A     -0.711899    35A     -0.687831    36A     -0.681665  
      37A     -0.670052    38A     -0.655090    39A     -0.637774  
      40A     -0.624109    41A     -0.616657    42A     -0.601692  
      43A     -0.597983    44A     -0.591141    45A     -0.573268  
      46A     -0.564578    47A     -0.551353    48A     -0.544130  
      49A     -0.531003    50A     -0.520767    51A     -0.509833  
      52A     -0.507967    53A     -0.476508    54A     -0.465320  
      55A     -0.451581    56A     -0.445167    57A     -0.434585  
      58A     -0.423116    59A     -0.396192  

    Virtual:                                                              

      60A      0.193712    61A      0.199140    62A      0.214159  
      63A      0.229607    64A      0.240263    65A      0.252695  
      66A      0.261298    67A      0.270943    68A      0.277596  
      69A      0.298805    70A      0.299175    71A      0.310147  
      72A      0.315220    73A      0.317716    74A      0.331652  
      75A      0.337598    76A      0.359193    77A      0.371232  
      78A      0.389204    79A      0.404020    80A      0.411967  
      81A      0.430024    82A      0.433214    83A      0.448449  
      84A      0.475417    85A      0.495995    86A      0.506658  
      87A      0.524625    88A      0.540862    89A      0.569410  
      90A      0.595249    91A      0.732906    92A      0.736248  
      93A      0.755436    94A      0.765626    95A      0.787179  
      96A      0.796568    97A      0.805359    98A      0.808622  
      99A      0.818801   100A      0.838463   101A      0.843855  
     102A      0.871615   103A      0.882994   104A      0.895676  
     105A      0.904062   106A      0.912744   107A      0.939975  
     108A      0.956886   109A      0.967387   110A      0.972061  
     111A      0.990513   112A      1.012521   113A      1.020019  
     114A      1.031273   115A      1.057733   116A      1.075517  
     117A      1.083271   118A      1.087790   119A      1.096093  
     120A      1.117592   121A      1.129489   122A      1.130211  
     123A      1.143393   124A      1.153565   125A      1.160494  
     126A      1.170032   127A      1.177204   128A      1.181151  
     129A      1.189491   130A      1.198681   131A      1.203347  
     132A      1.218428   133A      1.219680   134A      1.230426  
     135A      1.252341   136A      1.269634   137A      1.293922  
     138A      1.309484   139A      1.327525   140A      1.337294  
     141A      1.349684   142A      1.354679   143A      1.370671  
     144A      1.391659   145A      1.443715   146A      1.452295  
     147A      1.462421   148A      1.488792   149A      1.507943  
     150A      1.524875   151A      1.573935   152A      1.578959  
     153A      1.592436   154A      1.604826   155A      1.616164  
     156A      1.642306   157A      1.659139   158A      1.691233  
     159A      1.720952   160A      1.723803   161A      1.766711  
     162A      1.812302   163A      1.813662   164A      1.838820  
     165A      1.862006   166A      1.883352   167A      1.910292  
     168A      1.943638   169A      1.954119   170A      1.964364  
     171A      1.972488   172A      1.985890   173A      2.010259  
     174A      2.024886   175A      2.045693   176A      2.052217  
     177A      2.068296   178A      2.096551   179A      2.124152  
     180A      2.132188   181A      2.147270   182A      2.150971  
     183A      2.175349   184A      2.183940   185A      2.216091  
     186A      2.237195   187A      2.243592   188A      2.268838  
     189A      2.281920   190A      2.291845   191A      2.299086  
     192A      2.324556   193A      2.356183   194A      2.358276  
     195A      2.402758   196A      2.429939   197A      2.448910  
     198A      2.453193   199A      2.454533   200A      2.468443  
     201A      2.494035   202A      2.503480   203A      2.507785  
     204A      2.538340   205A      2.558400   206A      2.572588  
     207A      2.591745   208A      2.633169   209A      2.662569  
     210A      2.672320   211A      2.713164   212A      2.716318  
     213A      2.728467   214A      2.774416   215A      2.792330  
     216A      2.800355   217A      2.824814   218A      2.872265  
     219A      2.873652   220A      2.882863   221A      2.907317  
     222A      2.958080   223A      2.964948   224A      2.975886  
     225A      2.991058   226A      3.018833   227A      3.061475  
     228A      3.079451   229A      3.143036   230A      3.149775  
     231A      3.208269   232A      3.254325   233A      3.270250  
     234A      3.331663   235A      3.345900   236A      3.376457  
     237A      3.388771   238A      3.395745   239A      3.449413  
     240A      3.541410   241A      4.214570   242A      4.221751  
     243A      4.302009   244A      4.349637   245A      4.425275  
     246A      4.510072   247A      4.599688   248A      4.647018  
     249A      4.695442   250A      4.784220   251A      4.813368  
     252A      4.900752   253A      4.974858   254A      5.105217  
     255A      5.124489  

    Final Occupation by Irrep:
              A 
    DOCC [    59 ]

  Energy converged.

  @DF-RHF Final Energy:  -815.28896132175532

   => Energetics <=

    Nuclear Repulsion Energy =           1141.2280627493587417
    One-Electron Energy =               -3386.7900077216813770
    Two-Electron Energy =                1430.2729836505673120
    DFT Exchange-Correlation Energy =       0.0000000000000000
    Empirical Dispersion Energy =           0.0000000000000000
    PCM Polarization Energy =               0.0000000000000000
    EFP Energy =                            0.0000000000000000
    Total Energy =                       -815.2889613217553233

    Alert: EFP and PCM quantities not currently incorporated into SCF psivars.

Properties will be evaluated at   0.000000,   0.000000,   0.000000 Bohr

Properties computed using the SCF density matrix

  Nuclear Dipole Moment: (a.u.)
     X:     0.5473      Y:    -3.6913      Z:    -2.8504

  Electronic Dipole Moment: (a.u.)
     X:    -0.5786      Y:     2.1391      Z:     1.7696

  Dipole Moment: (a.u.)
     X:    -0.0313      Y:    -1.5522      Z:    -1.0808     Total:     1.8916

  Dipole Moment: (Debye)
     X:    -0.0795      Y:    -3.9452      Z:    -2.7471     Total:     4.8080


*** tstop() called on wr4 at Fri Nov 10 10:19:06 2017
Module time:
	user time   =     205.43 seconds =       3.42 minutes
	system time =       5.36 seconds =       0.09 minutes
	total time  =         35 seconds =       0.58 minutes
Total time:
	user time   =     205.43 seconds =       3.42 minutes
	system time =       5.36 seconds =       0.09 minutes
	total time  =         35 seconds =       0.58 minutes

*** tstart() called on wr4
*** at Fri Nov 10 10:19:06 2017


         ------------------------------------------------------------
                                   SCF GRAD                          
                          Rob Parrish, Justin Turney,                
                       Andy Simmonett, and Alex Sokolov              
         ------------------------------------------------------------

  ==> Geometry <==

    Molecular point group: c1
    Full point group: C1

    Geometry (in Angstrom), charge = 0, multiplicity = 1:

       Center              X                  Y                   Z               Mass       
    ------------   -----------------  -----------------  -----------------  -----------------
           O         -2.157779962692    -1.013618067921     0.354192379234    15.994914619560
           H         -2.459532053674    -1.517549474144     1.099093537420     1.007825032070
           C         -0.790286234394    -0.902316086550     0.407928565045    12.000000000000
           H         -0.320678712855    -1.883147916155     0.290681629508     1.007825032070
           O         -0.424699445510    -0.385083386328     1.649680160278    15.994914619560
           C          0.968251230499    -0.260443048257     1.861808478306    12.000000000000
           H          1.444148679291    -1.231196233905     1.738809331365     1.007825032070
           C          1.151206441099     0.192869861424     3.298607035792    12.000000000000
           H          0.699443464498     1.174404057292     3.423788123684     1.007825032070
           H          2.204665536726     0.271483694580     3.520313880460     1.007825032070
           O          0.604183127971    -0.729798975790     4.194454044842    15.994914619560
           H         -0.320940229747    -0.810687650137     4.005295451831     1.007825032070
           C          1.534998279156     0.716600710857     0.840243131625    12.000000000000
           H          1.087429925695     1.694967219951     1.002155885543     1.007825032070
           O          2.920650251226     0.772412811847     1.011930058307    15.994914619560
           H          3.284348762227     1.327953725316     0.333624547827     1.007825032070
           C          1.177549344462     0.263878682483    -0.567053185258    12.000000000000
           H          1.699282146793    -0.674936941045    -0.759078413150     1.007825032070
           O          1.644715401717     1.250238091881    -1.441709955429    15.994914619560
           H          1.328339962996     1.072022889185    -2.318100188710     1.007825032070
           C         -0.327566597440     0.038321798511    -0.701028186819    12.000000000000
           H         -0.847654314140     0.976579226808    -0.580603575344     1.007825032070
           N         -0.657106879310    -0.470890721209    -2.017513516558    14.003074004780
           H         -0.487930015739    -1.440852110105    -2.173878501819     1.007825032070
           C         -1.622316181430     0.108942331270    -2.800159803412    12.000000000000
           O         -2.033704579595     1.214434595384    -2.607769353290    15.994914619560
           C         -2.111252867341    -0.754714212817    -3.941850606277    12.000000000000
           H         -2.827703625278    -1.475656222679    -3.559717794636     1.007825032070
           H         -2.603292023478    -0.128469037731    -4.671151300450     1.007825032070
           H         -1.300965236299    -1.299534806674    -4.414182589586     1.007825032070

  Nuclear repulsion = 1141.228062749358742

  ==> Basis Set <==

  Basis Set: file /usr/local/hpc5/psi4conda/envs/p4env/share/psi4/basis/6-31g_d_.gbs
    Number of shells: 120
    Number of basis function: 255
    Number of Cartesian functions: 255
    Spherical Harmonics?: false
    Max angular momentum: 2

  ==> DFJKGrad: Density-Fitted SCF Gradients <==

    Gradient:                    1
    J tasked:                  Yes
    K tasked:                  Yes
    wK tasked:                  No
    OpenMP threads:             16
    Integrals threads:          16
    Memory (MB):             78678
    Schwarz Cutoff:          0E+00
    Fitting Condition:       1E-12

   => Auxiliary Basis Set <=

  Basis Set: file /usr/local/hpc5/psi4conda/envs/p4env/share/psi4/basis/cc-pvdz-jkfit.gbs
    Number of shells: 495
    Number of basis function: 1590
    Number of Cartesian functions: 1590
    Spherical Harmonics?: false
    Max angular momentum: 3


  -Total Gradient:
     Atom            X                  Y                   Z
    ------   -----------------  -----------------  -----------------
       1       -0.000000078328    -0.000000047516    -0.000000043868
       2        0.000000022791     0.000000025560    -0.000000027544
       3        0.000000112078    -0.000000057104     0.000000062676
       4       -0.000000008107     0.000000015533    -0.000000049400
       5       -0.000000044985     0.000000109699     0.000000093035
       6        0.000000169717    -0.000000068329     0.000000076145
       7       -0.000000019809     0.000000039760     0.000000027888
       8        0.000000018728    -0.000000014809    -0.000000141076
       9        0.000000002401    -0.000000006782    -0.000000006402
      10       -0.000000012353     0.000000001765    -0.000000031434
      11       -0.000000005798     0.000000005582     0.000000110273
      12       -0.000000060071    -0.000000045373    -0.000000017372
      13       -0.000000185193    -0.000000029313     0.000000032353
      14        0.000000030516    -0.000000023996    -0.000000000832
      15        0.000000026741     0.000000076375     0.000000006458
      16        0.000000007409    -0.000000035385    -0.000000012521
      17        0.000000019937    -0.000000040862     0.000000025478
      18       -0.000000001441     0.000000031794    -0.000000009388
      19        0.000000010065     0.000000048247    -0.000000149213
      20        0.000000061838    -0.000000019966    -0.000000046116
      21       -0.000000064005     0.000000033170     0.000000297322
      22       -0.000000012189    -0.000000036506    -0.000000027580
      23       -0.000000017039     0.000000087283    -0.000000215073
      24        0.000000024278     0.000000007379    -0.000000011265
      25       -0.000000023556     0.000000053644    -0.000000097742
      26        0.000000092782     0.000000017445     0.000000073741
      27       -0.000000052877    -0.000000063312     0.000000088015
      28       -0.000000018448    -0.000000034465    -0.000000046289
      29       -0.000000000215    -0.000000010108     0.000000024548
      30        0.000000005121    -0.000000019405     0.000000015169


*** tstop() called on wr4 at Fri Nov 10 10:19:20 2017
Module time:
	user time   =      85.76 seconds =       1.43 minutes
	system time =       1.61 seconds =       0.03 minutes
	total time  =         14 seconds =       0.23 minutes
Total time:
	user time   =     291.19 seconds =       4.85 minutes
	system time =       6.97 seconds =       0.12 minutes
	total time  =         49 seconds =       0.82 minutes

			-----------------------------------------
			 OPTKING 2.0: for geometry optimizations 
			  - R.A. King,  Bethel University        
			-----------------------------------------

	Internal coordinates to be generated automatically.
	Detected frag 1 with atoms:  1 2 3 4 5 6 7 8 9 10 11 12 13 14 15 16 17 18 19 20
	 21 22 23 24 25 26 27 28 29 30
	---Fragment 1 Bond Connectivity---
	 1 : 2 3
	 2 : 1
	 3 : 1 4 5 21
	 4 : 3
	 5 : 3 6
	 6 : 5 7 8 13
	 7 : 6
	 8 : 6 9 10 11
	 9 : 8
	 10 : 8
	 11 : 8 12
	 12 : 11
	 13 : 6 14 15 17
	 14 : 13
	 15 : 13 16
	 16 : 15
	 17 : 13 18 19 21
	 18 : 17
	 19 : 17 20
	 20 : 19
	 21 : 3 17 22 23
	 22 : 21
	 23 : 21 24 25
	 24 : 23
	 25 : 23 26 27
	 26 : 25
	 27 : 25 28 29 30
	 28 : 27
	 29 : 27
	 30 : 27

	---Fragment 1 Geometry and Gradient---
	 O          -4.0776131845       -1.9154605517        0.6693265951
	 H          -4.6478419965       -2.8677528992        2.0769857801
	 C          -1.4934245496       -1.7051302889        0.7708732697
	 H          -0.6059949439       -3.5586338292        0.5493086716
	 O          -0.8025656408       -0.7277021385        3.1174437098
	 C           1.8297296535       -0.4921660344        3.5183081359
	 H           2.7290454990       -2.3266236979        3.2858734336
	 C           2.1754648961        0.3644712174        6.2334639177
	 H           1.3217565933        2.2193020376        6.4700218908
	 H           4.1662140790        0.5130298323        6.6524291359
	 O           1.1417406460       -1.3791201963        7.9263694217
	 H          -0.6064891392       -1.5319776381        7.5689114853
	 C           2.9007263621        1.3541790902        1.5878294038
	 H           2.0549447483        3.2030238499        1.8938001661
	 O           5.5192291048        1.4596486759        1.9122706758
	 H           6.2065196855        2.5094688580        0.6304590266
	 C           2.2252457690        0.4986584422       -1.0715752229
	 H           3.2111778799       -1.2754459755       -1.4344503142
	 O           3.1080616758        2.3626075946       -2.7244369788
	 H           2.5101987414        2.0258296687       -4.3805745053
	 C          -0.6190111594        0.0724177041       -1.3247512845
	 H          -1.6018345091        1.8454672857       -1.0971817492
	 N          -1.2417520419       -0.8898545016       -3.8125480157
	 H          -0.9220541018       -2.7228158861       -4.1080350146
	 C          -3.0657332839        0.2058711704       -5.2915351568
	 O          -3.8431446906        2.2949487916       -4.9279698955
	 C          -3.9896897165       -1.4262031708       -7.4490181026
	 H          -5.3435854367       -2.7885861272       -6.7268917422
	 H          -4.9195089683       -0.2427712979       -8.8271966831
	 H          -2.4584680050       -2.4557648848       -8.3415961949
	            -0.0000000783       -0.0000000475       -0.0000000439
	             0.0000000228        0.0000000256       -0.0000000275
	             0.0000001121       -0.0000000571        0.0000000627
	            -0.0000000081        0.0000000155       -0.0000000494
	            -0.0000000450        0.0000001097        0.0000000930
	             0.0000001697       -0.0000000683        0.0000000761
	            -0.0000000198        0.0000000398        0.0000000279
	             0.0000000187       -0.0000000148       -0.0000001411
	             0.0000000024       -0.0000000068       -0.0000000064
	            -0.0000000124        0.0000000018       -0.0000000314
	            -0.0000000058        0.0000000056        0.0000001103
	            -0.0000000601       -0.0000000454       -0.0000000174
	            -0.0000001852       -0.0000000293        0.0000000324
	             0.0000000305       -0.0000000240       -0.0000000008
	             0.0000000267        0.0000000764        0.0000000065
	             0.0000000074       -0.0000000354       -0.0000000125
	             0.0000000199       -0.0000000409        0.0000000255
	            -0.0000000014        0.0000000318       -0.0000000094
	             0.0000000101        0.0000000482       -0.0000001492
	             0.0000000618       -0.0000000200       -0.0000000461
	            -0.0000000640        0.0000000332        0.0000002973
	            -0.0000000122       -0.0000000365       -0.0000000276
	            -0.0000000170        0.0000000873       -0.0000002151
	             0.0000000243        0.0000000074       -0.0000000113
	            -0.0000000236        0.0000000536       -0.0000000977
	             0.0000000928        0.0000000174        0.0000000737
	            -0.0000000529       -0.0000000633        0.0000000880
	            -0.0000000184       -0.0000000345       -0.0000000463
	            -0.0000000002       -0.0000000101        0.0000000245
	             0.0000000051       -0.0000000194        0.0000000152

	Previous optimization step data not found.  Starting new optimization.

	---Fragment 1 Intrafragment Coordinates---
	 - Coordinate -           - BOHR/RAD -       - ANG/DEG -
	 R(1,2)           =         1.792631	       0.948619
	 R(1,3)           =         2.594722	       1.373068
	 R(3,4)           =         2.066905	       1.093759
	 R(3,5)           =         2.634207	       1.393962
	 R(3,21)          =         2.883733	       1.526006
	 R(5,6)           =         2.673041	       1.414512
	 R(6,7)           =         2.056217	       1.088103
	 R(6,8)           =         2.868001	       1.517681
	 R(6,13)          =         2.877981	       1.522962
	 R(8,9)           =         2.055523	       1.087736
	 R(8,10)          =         2.039775	       1.079403
	 R(8,11)          =         2.640952	       1.397531
	 R(11,12)         =         1.790935	       0.947722
	 R(13,14)         =         2.056014	       1.087995
	 R(13,15)         =         2.640633	       1.397363
	 R(13,17)         =         2.874130	       1.520924
	 R(15,16)         =         1.793748	       0.949211
	 R(17,18)         =         2.061841	       1.091079
	 R(17,19)         =         2.643033	       1.398633
	 R(17,21)         =         2.887140	       1.527809
	 R(19,20)         =         1.792666	       0.948638
	 R(21,22)         =         2.039959	       1.079500
	 R(21,23)         =         2.739143	       1.449492
	 R(23,24)         =         1.883950	       0.996943
	 R(23,25)         =         2.591317	       1.371266
	 R(25,26)         =         2.258494	       1.195143
	 R(25,27)         =         2.858688	       1.512752
	 R(27,28)         =         2.051972	       1.085857
	 R(27,29)         =         2.040699	       1.079891
	 R(27,30)         =         2.049715	       1.084663
	 B(1,3,4)         =         1.929138	     110.531492
	 B(1,3,5)         =         1.903014	     109.034665
	 B(1,3,21)        =         1.900241	     108.875802
	 B(2,1,3)         =         1.906184	     109.216282
	 B(3,5,6)         =         2.009264	     115.122354
	 B(3,21,17)       =         1.902861	     109.025923
	 B(3,21,22)       =         1.884515	     107.974733
	 B(3,21,23)       =         1.954696	     111.995836
	 B(4,3,5)         =         1.891916	     108.398830
	 B(4,3,21)        =         1.922688	     110.161884
	 B(5,3,21)        =         1.916769	     109.822747
	 B(5,6,7)         =         1.912543	     109.580623
	 B(5,6,8)         =         1.861894	     106.678684
	 B(5,6,13)        =         1.899059	     108.808050
	 B(6,8,9)         =         1.905415	     109.172249
	 B(6,8,10)        =         1.911189	     109.503039
	 B(6,8,11)        =         1.941719	     111.252310
	 B(6,13,14)       =         1.900741	     108.904428
	 B(6,13,15)       =         1.888331	     108.193376
	 B(6,13,17)       =         1.920096	     110.013384
	 B(7,6,8)         =         1.897335	     108.709295
	 B(7,6,13)        =         1.911096	     109.497747
	 B(8,6,13)        =         1.980728	     113.487327
	 B(8,11,12)       =         1.886509	     108.089000
	 B(9,8,10)        =         1.892290	     108.420213
	 B(9,8,11)        =         1.938437	     111.064276
	 B(10,8,11)       =         1.873847	     107.363505
	 B(13,15,16)      =         1.891806	     108.392492
	 B(13,17,18)      =         1.882402	     107.853695
	 B(13,17,19)      =         1.865256	     106.871311
	 B(13,17,21)      =         1.935438	     110.892450
	 B(14,13,15)      =         1.932343	     110.715090
	 B(14,13,17)      =         1.884610	     107.980195
	 B(15,13,17)      =         1.937592	     111.015837
	 B(17,19,20)      =         1.911186	     109.502883
	 B(17,21,22)      =         1.914025	     109.665579
	 B(17,21,23)      =         1.934225	     110.822914
	 B(18,17,19)      =         1.914559	     109.696166
	 B(18,17,21)      =         1.905631	     109.184638
	 B(19,17,21)      =         1.958791	     112.230429
	 B(21,23,24)      =         2.032717	     116.466103
	 B(21,23,25)      =         2.129225	     121.995614
	 B(22,21,23)      =         1.872477	     107.285018
	 B(23,25,26)      =         2.143061	     122.788336
	 B(23,25,27)      =         2.000764	     114.635325
	 B(24,23,25)      =         2.027874	     116.188645
	 B(25,27,28)      =         1.903619	     109.069336
	 B(25,27,29)      =         1.902733	     109.018564
	 B(25,27,30)      =         1.954080	     111.960514
	 B(26,25,27)      =         2.139248	     122.569886
	 B(28,27,29)      =         1.898705	     108.787785
	 B(28,27,30)      =         1.888783	     108.219273
	 B(29,27,30)      =         1.915140	     109.729454
	 D(1,3,5,6)       =         3.104466	     177.872819
	 D(1,3,21,17)     =         3.053742	     174.966550
	 D(1,3,21,22)     =         0.975305	      55.880863
	 D(1,3,21,23)     =        -1.082455	     -62.020121
	 D(2,1,3,4)       =         1.137780	      65.189963
	 D(2,1,3,5)       =        -0.940228	     -53.871088
	 D(2,1,3,21)      =        -3.031246	    -173.677608
	 D(3,5,6,7)       =        -1.002219	     -57.422907
	 D(3,5,6,8)       =        -3.053240	    -174.937780
	 D(3,5,6,13)      =         1.086857	      62.272295
	 D(3,21,17,13)    =        -0.921628	     -52.805418
	 D(3,21,17,18)    =         1.150132	      65.897718
	 D(3,21,17,19)    =        -3.006354	    -172.251389
	 D(3,21,23,24)    =        -0.760758	     -43.588244
	 D(3,21,23,25)    =         1.912530	     109.579891
	 D(4,3,5,6)       =         1.003413	      57.491337
	 D(4,3,21,17)     =        -1.111340	     -63.675105
	 D(4,3,21,22)     =         3.093408	     177.239208
	 D(4,3,21,23)     =         1.035647	      59.338224
	 D(5,3,21,17)     =         0.971278	      55.650120
	 D(5,3,21,22)     =        -1.107160	     -63.435567
	 D(5,3,21,23)     =         3.118265	     178.663448
	 D(5,6,8,9)       =        -1.104875	     -63.304670
	 D(5,6,8,10)      =         3.109084	     178.137385
	 D(5,6,8,11)      =         1.040539	      59.618471
	 D(5,6,13,14)     =         1.097764	      62.897248
	 D(5,6,13,15)     =        -3.083950	    -176.697302
	 D(5,6,13,17)     =        -0.964585	     -55.266624
	 D(6,5,3,21)      =        -1.097954	     -62.908107
	 D(6,8,11,12)     =        -1.044973	     -59.872567
	 D(6,13,15,16)    =         3.065647	     175.648652
	 D(6,13,17,18)    =        -1.155381	     -66.198474
	 D(6,13,17,19)    =         3.070327	     175.916772
	 D(6,13,17,21)    =         0.930357	      53.305552
	 D(7,6,8,9)       =         3.117276	     178.606769
	 D(7,6,8,10)      =         1.048050	      60.048824
	 D(7,6,8,11)      =        -1.020496	     -58.470090
	 D(7,6,13,14)     =        -3.095447	    -177.356029
	 D(7,6,13,15)     =        -0.993975	     -56.950580
	 D(7,6,13,17)     =         1.125390	      64.480098
	 D(8,6,13,14)     =        -0.972073	     -55.695691
	 D(8,6,13,15)     =         1.129398	      64.709759
	 D(8,6,13,17)     =        -3.034422	    -173.859564
	 D(9,8,6,13)      =         0.986239	      56.507361
	 D(9,8,11,12)     =         1.081361	      61.957420
	 D(10,8,6,13)     =        -1.082987	     -62.050585
	 D(10,8,11,12)    =        -3.135828	    -179.669731
	 D(11,8,6,13)     =         3.131653	     179.430501
	 D(13,17,19,20)   =        -2.993874	    -171.536358
	 D(13,17,21,22)   =         1.138327	      65.221335
	 D(13,17,21,23)   =        -3.080806	    -176.517207
	 D(14,13,15,16)   =        -1.135915	     -65.083112
	 D(14,13,17,18)   =         3.055526	     175.068771
	 D(14,13,17,19)   =         0.998049	      57.184016
	 D(14,13,17,21)   =        -1.141920	     -65.427203
	 D(15,13,17,18)   =         0.934288	      53.530778
	 D(15,13,17,19)   =        -1.123189	     -64.353977
	 D(15,13,17,21)   =         3.020027	     173.034803
	 D(16,15,13,17)   =         0.957126	      54.839292
	 D(17,21,23,24)   =         1.368385	      78.402669
	 D(17,21,23,25)   =        -2.241512	    -128.429196
	 D(18,17,19,20)   =         1.253035	      71.793612
	 D(18,17,21,22)   =        -3.073098	    -176.075529
	 D(18,17,21,23)   =        -1.009046	     -57.814071
	 D(19,17,21,22)   =        -0.946398	     -54.224636
	 D(19,17,21,23)   =         1.117653	      64.036822
	 D(20,19,17,21)   =        -0.868563	     -49.765010
	 D(21,23,25,26)   =         0.306059	      17.535887
	 D(21,23,25,27)   =        -2.851295	    -163.367155
	 D(22,21,23,24)   =        -2.825682	    -161.899625
	 D(22,21,23,25)   =        -0.152393	      -8.731490
	 D(23,25,27,28)   =         1.391317	      79.716604
	 D(23,25,27,29)   =        -2.820882	    -161.624638
	 D(23,25,27,30)   =        -0.698553	     -40.024127
	 D(24,23,25,26)   =         2.980557	     170.773365
	 D(24,23,25,27)   =        -0.176796	     -10.129676
	 D(26,25,27,28)   =        -1.765998	    -101.184232
	 D(26,25,27,29)   =         0.304988	      17.474526
	 D(26,25,27,30)   =         2.427317	     139.075037
	 R(1,25)          =         6.407482	       3.390693

	Current energy   :      -815.2889613218

	Generating empirical Hessian (Schlegel '84) for each fragment.
	Taking RFO optimization step.
	Going to follow RFO solution 1.
	Using RFO vector 1.
	Norm of target step-size    0.00003
	Projected energy change by RFO approximation:         0.0000000000

	Back-transformation to cartesian coordinates...
	Successfully converged to displaced geometry.

	--- Internal Coordinate Step in ANG or DEG, aJ/ANG or AJ/DEG ---
	 ---------------------------------------------------------------------------
	   Coordinate                Previous        Force       Change         New 
	   ----------                --------       ------       ------       ------
	    1 R(1,2)          =      0.948619     0.000000     0.000000     0.948620
	    2 R(1,3)          =      1.373068    -0.000001    -0.000000     1.373068
	    3 R(3,4)          =      1.093759     0.000000     0.000000     1.093759
	    4 R(3,5)          =      1.393962    -0.000000    -0.000000     1.393962
	    5 R(3,21)         =      1.526006    -0.000000     0.000000     1.526006
	    6 R(5,6)          =      1.414512    -0.000000    -0.000000     1.414512
	    7 R(6,7)          =      1.088103     0.000000     0.000000     1.088103
	    8 R(6,8)          =      1.517681     0.000001     0.000000     1.517681
	    9 R(6,13)         =      1.522962    -0.000000    -0.000000     1.522962
	   10 R(8,9)          =      1.087736     0.000000     0.000000     1.087736
	   11 R(8,10)         =      1.079403     0.000000     0.000000     1.079403
	   12 R(8,11)         =      1.397531    -0.000001    -0.000000     1.397531
	   13 R(11,12)        =      0.947722    -0.000001    -0.000000     0.947722
	   14 R(13,14)        =      1.087995     0.000000     0.000000     1.087996
	   15 R(13,15)        =      1.397363    -0.000000    -0.000000     1.397363
	   16 R(13,17)        =      1.520924    -0.000000    -0.000000     1.520924
	   17 R(15,16)        =      0.949211     0.000000     0.000000     0.949211
	   18 R(17,18)        =      1.091079     0.000000     0.000000     1.091079
	   19 R(17,19)        =      1.398633    -0.000001    -0.000000     1.398633
	   20 R(17,21)        =      1.527809    -0.000000     0.000000     1.527809
	   21 R(19,20)        =      0.948638    -0.000000    -0.000000     0.948638
	   22 R(21,22)        =      1.079500     0.000000     0.000000     1.079500
	   23 R(21,23)        =      1.449492    -0.000001    -0.000000     1.449492
	   24 R(23,24)        =      0.996943     0.000000     0.000000     0.996943
	   25 R(23,25)        =      1.371266     0.000000     0.000000     1.371266
	   26 R(25,26)        =      1.195143     0.000000     0.000000     1.195143
	   27 R(25,27)        =      1.512752    -0.000000    -0.000000     1.512752
	   28 R(27,28)        =      1.085857    -0.000000    -0.000000     1.085857
	   29 R(27,29)        =      1.079891     0.000000     0.000000     1.079891
	   30 R(27,30)        =      1.084663    -0.000000    -0.000000     1.084663
	   31 B(1,3,4)        =    110.531492     0.000000     0.000006   110.531497
	   32 B(1,3,5)        =    109.034665    -0.000000    -0.000025   109.034640
	   33 B(1,3,21)       =    108.875802     0.000000     0.000002   108.875804
	   34 B(2,1,3)        =    109.216282     0.000000     0.000006   109.216288
	   35 B(3,5,6)        =    115.122354     0.000000     0.000004   115.122359
	   36 B(3,21,17)      =    109.025923    -0.000000     0.000055   109.025978
	   37 B(3,21,22)      =    107.974733    -0.000000    -0.000008   107.974725
	   38 B(3,21,23)      =    111.995836    -0.000000    -0.000035   111.995801
	   39 B(4,3,5)        =    108.398830    -0.000000    -0.000027   108.398803
	   40 B(4,3,21)       =    110.161884     0.000000     0.000017   110.161901
	   41 B(5,3,21)       =    109.822747    -0.000000     0.000028   109.822774
	   42 B(5,6,7)        =    109.580623    -0.000000    -0.000008   109.580614
	   43 B(5,6,8)        =    106.678684     0.000000     0.000029   106.678713
	   44 B(5,6,13)       =    108.808050     0.000000    -0.000001   108.808049
	   45 B(6,8,9)        =    109.172249     0.000000     0.000014   109.172263
	   46 B(6,8,10)       =    109.503039     0.000000     0.000007   109.503046
	   47 B(6,8,11)       =    111.252310    -0.000000    -0.000018   111.252292
	   48 B(6,13,14)      =    108.904428     0.000000    -0.000009   108.904420
	   49 B(6,13,15)      =    108.193376     0.000000    -0.000005   108.193372
	   50 B(6,13,17)      =    110.013384    -0.000000    -0.000005   110.013379
	   51 B(7,6,8)        =    108.709295     0.000000    -0.000000   108.709295
	   52 B(7,6,13)       =    109.497747    -0.000000    -0.000016   109.497731
	   53 B(8,6,13)       =    113.487327    -0.000000    -0.000002   113.487324
	   54 B(8,11,12)      =    108.089000    -0.000000    -0.000015   108.088984
	   55 B(9,8,10)       =    108.420213    -0.000000     0.000001   108.420214
	   56 B(9,8,11)       =    111.064276     0.000000     0.000008   111.064283
	   57 B(10,8,11)      =    107.363505    -0.000000    -0.000011   107.363493
	   58 B(13,15,16)     =    108.392492    -0.000000    -0.000006   108.392486
	   59 B(13,17,18)     =    107.853695    -0.000000     0.000007   107.853702
	   60 B(13,17,19)     =    106.871311    -0.000000    -0.000064   106.871247
	   61 B(13,17,21)     =    110.892450     0.000000     0.000081   110.892531
	   62 B(14,13,15)     =    110.715090     0.000000     0.000015   110.715105
	   63 B(14,13,17)     =    107.980195     0.000000     0.000003   107.980197
	   64 B(15,13,17)     =    111.015837     0.000000     0.000000   111.015837
	   65 B(17,19,20)     =    109.502883    -0.000000    -0.000019   109.502864
	   66 B(17,21,22)     =    109.665579    -0.000000    -0.000015   109.665565
	   67 B(17,21,23)     =    110.822914     0.000000    -0.000022   110.822891
	   68 B(18,17,19)     =    109.696166     0.000000     0.000024   109.696190
	   69 B(18,17,21)     =    109.184638    -0.000000    -0.000011   109.184627
	   70 B(19,17,21)     =    112.230429    -0.000000    -0.000036   112.230393
	   71 B(21,23,24)     =    116.466103     0.000000     0.000025   116.466128
	   72 B(21,23,25)     =    121.995614     0.000000     0.000030   121.995645
	   73 B(22,21,23)     =    107.285018     0.000000     0.000024   107.285042
	   74 B(23,25,26)     =    122.788336     0.000000     0.000026   122.788362
	   75 B(23,25,27)     =    114.635325     0.000000     0.000006   114.635331
	   76 B(24,23,25)     =    116.188645    -0.000000     0.000009   116.188654
	   77 B(25,27,28)     =    109.069336    -0.000000    -0.000033   109.069303
	   78 B(25,27,29)     =    109.018564     0.000000     0.000008   109.018571
	   79 B(25,27,30)     =    111.960514     0.000000     0.000009   111.960522
	   80 B(26,25,27)     =    122.569886    -0.000000    -0.000035   122.569851
	   81 B(28,27,29)     =    108.787785     0.000000     0.000008   108.787793
	   82 B(28,27,30)     =    108.219273     0.000000     0.000011   108.219284
	   83 B(29,27,30)     =    109.729454    -0.000000    -0.000003   109.729450
	   84 D(1,3,5,6)      =    177.872819    -0.000000     0.000025   177.872844
	   85 D(1,3,21,17)    =    174.966550    -0.000000    -0.000209   174.966341
	   86 D(1,3,21,22)    =     55.880863    -0.000000    -0.000218    55.880645
	   87 D(1,3,21,23)    =    -62.020121    -0.000000    -0.000222   -62.020344
	   88 D(2,1,3,4)      =     65.189963    -0.000000    -0.000039    65.189924
	   89 D(2,1,3,5)      =    -53.871088     0.000000     0.000006   -53.871082
	   90 D(2,1,3,21)     =   -173.677608     0.000000    -0.000014  -173.677622
	   91 D(3,5,6,7)      =    -57.422907     0.000000     0.000117   -57.422790
	   92 D(3,5,6,8)      =   -174.937780     0.000000     0.000106  -174.937674
	   93 D(3,5,6,13)     =     62.272295     0.000000     0.000092    62.272387
	   94 D(3,21,17,13)   =    -52.805418    -0.000000     0.000225   -52.805194
	   95 D(3,21,17,18)   =     65.897718     0.000000     0.000275    65.897993
	   96 D(3,21,17,19)   =   -172.251389     0.000000     0.000274  -172.251115
	   97 D(3,21,23,24)   =    -43.588244    -0.000000    -0.000173   -43.588417
	   98 D(3,21,23,25)   =    109.579891     0.000000    -0.000019   109.579872
	   99 D(4,3,5,6)      =     57.491337     0.000000     0.000048    57.491386
	  100 D(4,3,21,17)    =    -63.675105    -0.000000    -0.000190   -63.675294
	  101 D(4,3,21,22)    =    177.239208     0.000000    -0.000199   177.239009
	  102 D(4,3,21,23)    =     59.338224     0.000000    -0.000203    59.338021
	  103 D(5,3,21,17)    =     55.650120    -0.000000    -0.000196    55.649924
	  104 D(5,3,21,22)    =    -63.435567    -0.000000    -0.000205   -63.435773
	  105 D(5,3,21,23)    =    178.663448    -0.000000    -0.000210   178.663239
	  106 D(5,6,8,9)      =    -63.304670    -0.000000     0.000016   -63.304654
	  107 D(5,6,8,10)     =    178.137385    -0.000000     0.000003   178.137388
	  108 D(5,6,8,11)     =     59.618471    -0.000000     0.000024    59.618494
	  109 D(5,6,13,14)    =     62.897248     0.000000    -0.000020    62.897228
	  110 D(5,6,13,15)    =   -176.697302     0.000000    -0.000010  -176.697312
	  111 D(5,6,13,17)    =    -55.266624     0.000000    -0.000016   -55.266640
	  112 D(6,5,3,21)     =    -62.908107     0.000000     0.000028   -62.908079
	  113 D(6,8,11,12)    =    -59.872567    -0.000000    -0.000217   -59.872785
	  114 D(6,13,15,16)   =    175.648652     0.000000     0.000220   175.648872
	  115 D(6,13,17,18)   =    -66.198474    -0.000000    -0.000170   -66.198644
	  116 D(6,13,17,19)   =    175.916772    -0.000000    -0.000168   175.916604
	  117 D(6,13,17,21)   =     53.305552    -0.000000    -0.000131    53.305421
	  118 D(7,6,8,9)      =    178.606769    -0.000000     0.000010   178.606779
	  119 D(7,6,8,10)     =     60.048824    -0.000000    -0.000003    60.048821
	  120 D(7,6,8,11)     =    -58.470090     0.000000     0.000018   -58.470072
	  121 D(7,6,13,14)    =   -177.356029    -0.000000    -0.000041  -177.356070
	  122 D(7,6,13,15)    =    -56.950580     0.000000    -0.000031   -56.950611
	  123 D(7,6,13,17)    =     64.480098     0.000000    -0.000036    64.480062
	  124 D(8,6,13,14)    =    -55.695691    -0.000000    -0.000055   -55.695746
	  125 D(8,6,13,15)    =     64.709759    -0.000000    -0.000045    64.709714
	  126 D(8,6,13,17)    =   -173.859564    -0.000000    -0.000050  -173.859614
	  127 D(9,8,6,13)     =     56.507361     0.000000     0.000033    56.507393
	  128 D(9,8,11,12)    =     61.957420    -0.000000    -0.000206    61.957214
	  129 D(10,8,6,13)    =    -62.050585     0.000000     0.000020   -62.050565
	  130 D(10,8,11,12)   =   -179.669731    -0.000000    -0.000208  -179.669939
	  131 D(11,8,6,13)    =    179.430501     0.000000     0.000040   179.430542
	  132 D(13,17,19,20)  =   -171.536358     0.000000     0.000427  -171.535931
	  133 D(13,17,21,22)  =     65.221335    -0.000000     0.000239    65.221574
	  134 D(13,17,21,23)  =   -176.517207     0.000000     0.000247  -176.516960
	  135 D(14,13,15,16)  =    -65.083112     0.000000     0.000216   -65.082896
	  136 D(14,13,17,18)  =    175.068771     0.000000    -0.000158   175.068613
	  137 D(14,13,17,19)  =     57.184016    -0.000000    -0.000156    57.183860
	  138 D(14,13,17,21)  =    -65.427203     0.000000    -0.000120   -65.427323
	  139 D(15,13,17,18)  =     53.530778    -0.000000    -0.000179    53.530599
	  140 D(15,13,17,19)  =    -64.353977    -0.000000    -0.000177   -64.354154
	  141 D(15,13,17,21)  =    173.034803    -0.000000    -0.000140   173.034663
	  142 D(16,15,13,17)  =     54.839292     0.000000     0.000229    54.839521
	  143 D(17,21,23,24)  =     78.402669    -0.000000    -0.000143    78.402526
	  144 D(17,21,23,25)  =   -128.429196    -0.000000     0.000011  -128.429185
	  145 D(18,17,19,20)  =     71.793612     0.000000     0.000442    71.794054
	  146 D(18,17,21,22)  =   -176.075529    -0.000000     0.000290  -176.075239
	  147 D(18,17,21,23)  =    -57.814071     0.000000     0.000297   -57.813774
	  148 D(19,17,21,22)  =    -54.224636     0.000000     0.000289   -54.224347
	  149 D(19,17,21,23)  =     64.036822     0.000000     0.000296    64.037118
	  150 D(20,19,17,21)  =    -49.765010     0.000000     0.000463   -49.764547
	  151 D(21,23,25,26)  =     17.535887    -0.000000    -0.000245    17.535641
	  152 D(21,23,25,27)  =   -163.367155    -0.000000    -0.000482  -163.367637
	  153 D(22,21,23,24)  =   -161.899625    -0.000000    -0.000159  -161.899783
	  154 D(22,21,23,25)  =     -8.731490     0.000000    -0.000005    -8.731494
	  155 D(23,25,27,28)  =     79.716604     0.000000     0.000058    79.716661
	  156 D(23,25,27,29)  =   -161.624638     0.000000     0.000053  -161.624585
	  157 D(23,25,27,30)  =    -40.024127     0.000000     0.000060   -40.024068
	  158 D(24,23,25,26)  =    170.773365    -0.000000    -0.000088   170.773277
	  159 D(24,23,25,27)  =    -10.129676    -0.000000    -0.000324   -10.130001
	  160 D(26,25,27,28)  =   -101.184232    -0.000000    -0.000177  -101.184409
	  161 D(26,25,27,29)  =     17.474526    -0.000000    -0.000182    17.474344
	  162 D(26,25,27,30)  =    139.075037    -0.000000    -0.000175   139.074862
	  163 R(1,25)         =      3.390693     0.000000     0.000001     3.390694
	 ---------------------------------------------------------------------------
	Successfully symmetrized geometry.

  ==> Convergence Check <==

  Measures of convergence in internal coordinates in au.
  Criteria marked as inactive (o), active & met (*), and active & unmet ( ).
  --------------------------------------------------------------------------------------------- ~
   Step     Total Energy     Delta E     MAX Force     RMS Force      MAX Disp      RMS Disp    ~
  --------------------------------------------------------------------------------------------- ~
    Convergence Criteria             o    2.00e-06 *    1.00e-06 *    6.00e-06 *    4.00e-06 *  ~
  --------------------------------------------------------------------------------------------- ~
      1    -815.28896132   -8.15e+02 o    1.66e-07 *    4.15e-08 *    8.41e-06      2.30e-06 *  ~
  ---------------------------------------------------------------------------------------------

	Writing optimization data to binary file.
	Structure for next step:
	Cartesian Geometry (in Angstrom)
	    O    -2.1577841995  -1.0136101145   0.3541974208
	    H    -2.4595366261  -1.5175401442   1.0990994250
	    C    -0.7902900828  -0.9023124887   0.4079310103
	    H    -0.3206858317  -1.8831459519   0.2906844656
	    O    -0.4246999464  -0.3850804035   1.6496817531
	    C     0.9682512714  -0.2604436680   1.8618078690
	    H     1.4441461439  -1.2311978781   1.7388062157
	    C     1.1512107800   0.1928667143   3.2986068737
	    H     0.6994503540   1.1744017454   3.4237907331
	    H     2.2046705580   0.2714776711   3.5203116384
	    O     0.6041875198  -0.7298024985   4.1944533208
	    H    -0.3209370027  -0.8106861855   4.0052986038
	    C     1.5349988410   0.7165999104   0.8402429094
	    H     1.0874327080   1.6949671812   1.0021575521
	    O     2.9206511625   0.7724086055   1.0119277946
	    H     3.2843494768   1.3279522720   0.3336244191
	    C     1.1775467255   0.2638802018  -0.5670533036
	    H     1.6992795477  -0.6749348285  -0.7590816047
	    O     1.6447106144   1.2502420912  -1.4417081292
	    H     1.3283280122   1.0720325654  -2.3180969071
	    C    -0.3275693796   0.0383230498  -0.7010273805
	    H    -0.8476568069   0.9765809437  -0.5806047684
	    N    -0.6571094254  -0.4708925888  -2.0175113331
	    H    -0.4879305523  -1.4408538309  -2.1738750696
	    C    -1.6223184384   0.1089381688  -2.8001597575
	    O    -2.0337104440   1.2144292914  -2.6077704533
	    C    -2.1112463340  -0.7547170886  -3.9418552328
	    H    -2.8276958083  -1.4756628734  -3.5597272030
	    H    -2.6032848171  -0.1284719562  -4.6711564631
	    H    -1.3009544248  -1.2995331072  -4.4141851283
			--------------------------
			 OPTKING Finished Execution 
			--------------------------

    Structure for next step:
    Molecular point group: c1
    Full point group: C1

    Geometry (in Angstrom), charge = 0, multiplicity = 1:

    O           -2.157783364571    -1.013609873272     0.354197117374
    H           -2.459535791184    -1.517539903050     1.099099121564
    C           -0.790289247834    -0.902312247520     0.407930706883
    H           -0.320684996739    -1.883145710758     0.290684162210
    O           -0.424699111510    -0.385080162342     1.649681449736
    C            0.968252106318    -0.260443426832     1.861807565607
    H            1.444146978843    -1.231197636958     1.738805912270
    C            1.151211614950     0.192866955508     3.298606570294
    H            0.699451188949     1.174401986618     3.423790429724
    H            2.204671392911     0.271477912238     3.520311334983
    O            0.604188354775    -0.729802257334     4.194453017375
    H           -0.320936167779    -0.810685944360     4.005298300374
    C            1.534999675982     0.716600151561     0.840242605989
    H            1.087433542980     1.694967422367     1.002157248650
    O            2.920651997449     0.772408846713     1.011927491222
    H            3.284350311747     1.327952513207     0.333624115720
    C            1.177547560443     0.263880443027    -0.567053606965
    H            1.699280382607    -0.674934587325    -0.759081908133
    O            1.644711449374     1.250242332418    -1.441708432577
    H            1.328328847179     1.072032806608    -2.318097210468
    C           -0.327568544680     0.038323290932    -0.701027683919
    H           -0.847655971934     0.976581184890    -0.580605071783
    N           -0.657108590422    -0.470892347613    -2.017511636475
    H           -0.487929717366    -1.440853589715    -2.173875373022
    C           -1.622317603488     0.108938409940    -2.800160060950
    O           -2.033709609033     1.214429532599    -2.607770756703
    C           -2.111245499057    -0.754716847403    -3.941855536220
    H           -2.827694973396    -1.475662632265    -3.559727506455
    H           -2.603283982129    -0.128471715054    -4.671156766474
    H           -1.300953589909    -1.299532866026    -4.414185431745

gradient() will perform analytic gradient computation.

*** tstart() called on wr4
*** at Fri Nov 10 10:19:21 2017


         ---------------------------------------------------------
                                   SCF
            by Justin Turney, Rob Parrish, and Andy Simmonett
                              RHF Reference
                       16 Threads, 110000 MiB Core
         ---------------------------------------------------------

  ==> Geometry <==

    Molecular point group: c1
    Full point group: C1

    Geometry (in Angstrom), charge = 0, multiplicity = 1:

       Center              X                  Y                   Z               Mass       
    ------------   -----------------  -----------------  -----------------  -----------------
           O         -2.157783364571    -1.013609873272     0.354197117374    15.994914619560
           H         -2.459535791184    -1.517539903050     1.099099121564     1.007825032070
           C         -0.790289247834    -0.902312247520     0.407930706883    12.000000000000
           H         -0.320684996739    -1.883145710758     0.290684162210     1.007825032070
           O         -0.424699111510    -0.385080162342     1.649681449736    15.994914619560
           C          0.968252106318    -0.260443426832     1.861807565607    12.000000000000
           H          1.444146978843    -1.231197636958     1.738805912270     1.007825032070
           C          1.151211614950     0.192866955508     3.298606570294    12.000000000000
           H          0.699451188949     1.174401986618     3.423790429724     1.007825032070
           H          2.204671392911     0.271477912238     3.520311334983     1.007825032070
           O          0.604188354775    -0.729802257334     4.194453017375    15.994914619560
           H         -0.320936167779    -0.810685944360     4.005298300374     1.007825032070
           C          1.534999675982     0.716600151561     0.840242605989    12.000000000000
           H          1.087433542980     1.694967422367     1.002157248650     1.007825032070
           O          2.920651997449     0.772408846713     1.011927491222    15.994914619560
           H          3.284350311747     1.327952513207     0.333624115720     1.007825032070
           C          1.177547560443     0.263880443027    -0.567053606965    12.000000000000
           H          1.699280382607    -0.674934587325    -0.759081908133     1.007825032070
           O          1.644711449374     1.250242332418    -1.441708432577    15.994914619560
           H          1.328328847179     1.072032806608    -2.318097210468     1.007825032070
           C         -0.327568544680     0.038323290932    -0.701027683919    12.000000000000
           H         -0.847655971934     0.976581184890    -0.580605071783     1.007825032070
           N         -0.657108590422    -0.470892347613    -2.017511636475    14.003074004780
           H         -0.487929717366    -1.440853589715    -2.173875373022     1.007825032070
           C         -1.622317603488     0.108938409940    -2.800160060950    12.000000000000
           O         -2.033709609033     1.214429532599    -2.607770756703    15.994914619560
           C         -2.111245499057    -0.754716847403    -3.941855536220    12.000000000000
           H         -2.827694973396    -1.475662632265    -3.559727506455     1.007825032070
           H         -2.603283982129    -0.128471715054    -4.671156766474     1.007825032070
           H         -1.300953589909    -1.299532866026    -4.414185431745     1.007825032070

  Running in c1 symmetry.

  Rotational constants: A =      0.03470  B =      0.01212  C =      0.00965 [cm^-1]
  Rotational constants: A =   1040.37302  B =    363.22403  C =    289.22502 [MHz]
  Nuclear repulsion = 1141.228024753164618

  Charge       = 0
  Multiplicity = 1
  Electrons    = 118
  Nalpha       = 59
  Nbeta        = 59

  ==> Algorithm <==

  SCF Algorithm Type is DF.
  DIIS enabled.
  MOM disabled.
  Fractional occupation disabled.
  Guess Type is READ.
  Energy threshold   = 1.00e-08
  Density threshold  = 1.00e-08
  Integral threshold = 0.00e+00

  ==> Primary Basis <==

  Basis Set: file /usr/local/hpc5/psi4conda/envs/p4env/share/psi4/basis/6-31g_d_.gbs
    Number of shells: 120
    Number of basis function: 255
    Number of Cartesian functions: 255
    Spherical Harmonics?: false
    Max angular momentum: 2

  Reading orbitals from file 180, no projection.

  ==> Pre-Iterations <==

   -------------------------------------------------------
    Irrep   Nso     Nmo     Nalpha   Nbeta   Ndocc  Nsocc
   -------------------------------------------------------
     A        255     255       0       0       0       0
   -------------------------------------------------------
    Total     255     255      59      59      59       0
   -------------------------------------------------------

  ==> Integral Setup <==

  ==> DFJK: Density-Fitted J/K Matrices <==

    J tasked:                  Yes
    K tasked:                  Yes
    wK tasked:                  No
    OpenMP threads:             16
    Integrals threads:          16
    Memory (MB):             78678
    Algorithm:                Core
    Integral Cache:           NONE
    Schwarz Cutoff:          1E-12
    Fitting Condition:       1E-12

   => Auxiliary Basis Set <=

  Basis Set: file /usr/local/hpc5/psi4conda/envs/p4env/share/psi4/basis/cc-pvdz-jkfit.gbs
    Number of shells: 495
    Number of basis function: 1590
    Number of Cartesian functions: 1590
    Spherical Harmonics?: false
    Max angular momentum: 3

  Minimum eigenvalue in the overlap matrix is 1.6105999832E-03.
  Using Symmetric Orthogonalization.

  SCF Guess: Orbitals guess was supplied from a previous computation.

  ==> Iterations <==

                           Total Energy        Delta E     RMS |[F,P]|

   @DF-RHF iter   0:  -815.28896137085121   -8.15289e+02   6.25095e-08 
   @DF-RHF iter   1:  -815.28896132107684    4.97744e-08   1.08367e-08 
   @DF-RHF iter   2:  -815.28896132107991   -3.06954e-12   3.96238e-09 DIIS

  ==> Post-Iterations <==

    Orbital Energies (a.u.)
    -----------------------

    Doubly Occupied:                                                      

       1A    -20.588350     2A    -20.586851     3A    -20.575591  
       4A    -20.568868     5A    -20.555701     6A    -20.534292  
       7A    -15.598469     8A    -11.358890     9A    -11.354316  
      10A    -11.292016    11A    -11.289838    12A    -11.286969  
      13A    -11.275488    14A    -11.271383    15A    -11.240587  
      16A     -1.452188    17A     -1.403757    18A     -1.398151  
      19A     -1.379294    20A     -1.369356    21A     -1.357845  
      22A     -1.248692    23A     -1.076062    24A     -1.055316  
      25A     -1.006393    26A     -0.943999    27A     -0.882794  
      28A     -0.857464    29A     -0.824681    30A     -0.797209  
      31A     -0.763012    32A     -0.731714    33A     -0.725221  
      34A     -0.711899    35A     -0.687831    36A     -0.681665  
      37A     -0.670052    38A     -0.655090    39A     -0.637774  
      40A     -0.624109    41A     -0.616657    42A     -0.601692  
      43A     -0.597983    44A     -0.591141    45A     -0.573268  
      46A     -0.564578    47A     -0.551353    48A     -0.544129  
      49A     -0.531003    50A     -0.520766    51A     -0.509833  
      52A     -0.507967    53A     -0.476508    54A     -0.465320  
      55A     -0.451581    56A     -0.445167    57A     -0.434585  
      58A     -0.423115    59A     -0.396192  

    Virtual:                                                              

      60A      0.193712    61A      0.199140    62A      0.214159  
      63A      0.229607    64A      0.240263    65A      0.252695  
      66A      0.261298    67A      0.270943    68A      0.277596  
      69A      0.298805    70A      0.299175    71A      0.310147  
      72A      0.315220    73A      0.317716    74A      0.331652  
      75A      0.337598    76A      0.359193    77A      0.371232  
      78A      0.389204    79A      0.404020    80A      0.411967  
      81A      0.430024    82A      0.433214    83A      0.448449  
      84A      0.475417    85A      0.495995    86A      0.506659  
      87A      0.524625    88A      0.540862    89A      0.569410  
      90A      0.595249    91A      0.732906    92A      0.736248  
      93A      0.755436    94A      0.765626    95A      0.787179  
      96A      0.796568    97A      0.805359    98A      0.808622  
      99A      0.818801   100A      0.838463   101A      0.843855  
     102A      0.871615   103A      0.882994   104A      0.895676  
     105A      0.904062   106A      0.912744   107A      0.939975  
     108A      0.956886   109A      0.967388   110A      0.972060  
     111A      0.990513   112A      1.012521   113A      1.020019  
     114A      1.031274   115A      1.057733   116A      1.075517  
     117A      1.083271   118A      1.087790   119A      1.096093  
     120A      1.117592   121A      1.129489   122A      1.130211  
     123A      1.143394   124A      1.153565   125A      1.160494  
     126A      1.170031   127A      1.177204   128A      1.181151  
     129A      1.189491   130A      1.198681   131A      1.203347  
     132A      1.218428   133A      1.219680   134A      1.230426  
     135A      1.252341   136A      1.269634   137A      1.293923  
     138A      1.309485   139A      1.327525   140A      1.337294  
     141A      1.349684   142A      1.354679   143A      1.370671  
     144A      1.391659   145A      1.443715   146A      1.452294  
     147A      1.462420   148A      1.488793   149A      1.507943  
     150A      1.524875   151A      1.573935   152A      1.578958  
     153A      1.592436   154A      1.604826   155A      1.616164  
     156A      1.642305   157A      1.659139   158A      1.691233  
     159A      1.720952   160A      1.723803   161A      1.766710  
     162A      1.812302   163A      1.813661   164A      1.838820  
     165A      1.862006   166A      1.883352   167A      1.910293  
     168A      1.943638   169A      1.954119   170A      1.964364  
     171A      1.972489   172A      1.985890   173A      2.010259  
     174A      2.024886   175A      2.045693   176A      2.052217  
     177A      2.068296   178A      2.096551   179A      2.124152  
     180A      2.132188   181A      2.147270   182A      2.150972  
     183A      2.175350   184A      2.183940   185A      2.216092  
     186A      2.237195   187A      2.243593   188A      2.268838  
     189A      2.281920   190A      2.291845   191A      2.299086  
     192A      2.324556   193A      2.356183   194A      2.358275  
     195A      2.402758   196A      2.429938   197A      2.448910  
     198A      2.453193   199A      2.454533   200A      2.468443  
     201A      2.494035   202A      2.503480   203A      2.507785  
     204A      2.538339   205A      2.558400   206A      2.572587  
     207A      2.591745   208A      2.633169   209A      2.662569  
     210A      2.672320   211A      2.713164   212A      2.716318  
     213A      2.728467   214A      2.774417   215A      2.792331  
     216A      2.800355   217A      2.824814   218A      2.872265  
     219A      2.873652   220A      2.882863   221A      2.907316  
     222A      2.958080   223A      2.964948   224A      2.975885  
     225A      2.991058   226A      3.018833   227A      3.061476  
     228A      3.079451   229A      3.143036   230A      3.149775  
     231A      3.208269   232A      3.254325   233A      3.270250  
     234A      3.331663   235A      3.345900   236A      3.376457  
     237A      3.388771   238A      3.395745   239A      3.449413  
     240A      3.541410   241A      4.214570   242A      4.221751  
     243A      4.302008   244A      4.349638   245A      4.425276  
     246A      4.510073   247A      4.599688   248A      4.647019  
     249A      4.695442   250A      4.784221   251A      4.813368  
     252A      4.900752   253A      4.974858   254A      5.105216  
     255A      5.124489  

    Final Occupation by Irrep:
              A 
    DOCC [    59 ]

  Energy converged.

  @DF-RHF Final Energy:  -815.28896132107991

   => Energetics <=

    Nuclear Repulsion Energy =           1141.2280247531646182
    One-Electron Energy =               -3386.7899321944955773
    Two-Electron Energy =                1430.2729461202507082
    DFT Exchange-Correlation Energy =       0.0000000000000000
    Empirical Dispersion Energy =           0.0000000000000000
    PCM Polarization Energy =               0.0000000000000000
    EFP Energy =                            0.0000000000000000
    Total Energy =                       -815.2889613210800235

    Alert: EFP and PCM quantities not currently incorporated into SCF psivars.

Properties will be evaluated at   0.000000,   0.000000,   0.000000 Bohr

Properties computed using the SCF density matrix

  Nuclear Dipole Moment: (a.u.)
     X:     0.5474      Y:    -3.6913      Z:    -2.8504

  Electronic Dipole Moment: (a.u.)
     X:    -0.5786      Y:     2.1391      Z:     1.7696

  Dipole Moment: (a.u.)
     X:    -0.0313      Y:    -1.5521      Z:    -1.0808     Total:     1.8916

  Dipole Moment: (Debye)
     X:    -0.0795      Y:    -3.9452      Z:    -2.7470     Total:     4.8080


*** tstop() called on wr4 at Fri Nov 10 10:19:39 2017
Module time:
	user time   =      66.34 seconds =       1.11 minutes
	system time =       1.36 seconds =       0.02 minutes
	total time  =         18 seconds =       0.30 minutes
Total time:
	user time   =     360.35 seconds =       6.01 minutes
	system time =       8.46 seconds =       0.14 minutes
	total time  =         68 seconds =       1.13 minutes

*** tstart() called on wr4
*** at Fri Nov 10 10:19:39 2017


         ------------------------------------------------------------
                                   SCF GRAD                          
                          Rob Parrish, Justin Turney,                
                       Andy Simmonett, and Alex Sokolov              
         ------------------------------------------------------------

  ==> Geometry <==

    Molecular point group: c1
    Full point group: C1

    Geometry (in Angstrom), charge = 0, multiplicity = 1:

       Center              X                  Y                   Z               Mass       
    ------------   -----------------  -----------------  -----------------  -----------------
           O         -2.157783364571    -1.013609873272     0.354197117374    15.994914619560
           H         -2.459535791184    -1.517539903050     1.099099121564     1.007825032070
           C         -0.790289247834    -0.902312247520     0.407930706883    12.000000000000
           H         -0.320684996739    -1.883145710758     0.290684162210     1.007825032070
           O         -0.424699111510    -0.385080162342     1.649681449736    15.994914619560
           C          0.968252106318    -0.260443426832     1.861807565607    12.000000000000
           H          1.444146978843    -1.231197636958     1.738805912270     1.007825032070
           C          1.151211614950     0.192866955508     3.298606570294    12.000000000000
           H          0.699451188949     1.174401986618     3.423790429724     1.007825032070
           H          2.204671392911     0.271477912238     3.520311334983     1.007825032070
           O          0.604188354775    -0.729802257334     4.194453017375    15.994914619560
           H         -0.320936167779    -0.810685944360     4.005298300374     1.007825032070
           C          1.534999675982     0.716600151561     0.840242605989    12.000000000000
           H          1.087433542980     1.694967422367     1.002157248650     1.007825032070
           O          2.920651997449     0.772408846713     1.011927491222    15.994914619560
           H          3.284350311747     1.327952513207     0.333624115720     1.007825032070
           C          1.177547560443     0.263880443027    -0.567053606965    12.000000000000
           H          1.699280382607    -0.674934587325    -0.759081908133     1.007825032070
           O          1.644711449374     1.250242332418    -1.441708432577    15.994914619560
           H          1.328328847179     1.072032806608    -2.318097210468     1.007825032070
           C         -0.327568544680     0.038323290932    -0.701027683919    12.000000000000
           H         -0.847655971934     0.976581184890    -0.580605071783     1.007825032070
           N         -0.657108590422    -0.470892347613    -2.017511636475    14.003074004780
           H         -0.487929717366    -1.440853589715    -2.173875373022     1.007825032070
           C         -1.622317603488     0.108938409940    -2.800160060950    12.000000000000
           O         -2.033709609033     1.214429532599    -2.607770756703    15.994914619560
           C         -2.111245499057    -0.754716847403    -3.941855536220    12.000000000000
           H         -2.827694973396    -1.475662632265    -3.559727506455     1.007825032070
           H         -2.603283982129    -0.128471715054    -4.671156766474     1.007825032070
           H         -1.300953589909    -1.299532866026    -4.414185431745     1.007825032070

  Nuclear repulsion = 1141.228024753164846

  ==> Basis Set <==

  Basis Set: file /usr/local/hpc5/psi4conda/envs/p4env/share/psi4/basis/6-31g_d_.gbs
    Number of shells: 120
    Number of basis function: 255
    Number of Cartesian functions: 255
    Spherical Harmonics?: false
    Max angular momentum: 2

  ==> DFJKGrad: Density-Fitted SCF Gradients <==

    Gradient:                    1
    J tasked:                  Yes
    K tasked:                  Yes
    wK tasked:                  No
    OpenMP threads:             16
    Integrals threads:          16
    Memory (MB):             78678
    Schwarz Cutoff:          0E+00
    Fitting Condition:       1E-12

   => Auxiliary Basis Set <=

  Basis Set: file /usr/local/hpc5/psi4conda/envs/p4env/share/psi4/basis/cc-pvdz-jkfit.gbs
    Number of shells: 495
    Number of basis function: 1590
    Number of Cartesian functions: 1590
    Spherical Harmonics?: false
    Max angular momentum: 3


  -Total Gradient:
     Atom            X                  Y                   Z
    ------   -----------------  -----------------  -----------------
       1        0.000000084016     0.000000093608    -0.000000017415
       2       -0.000000052635    -0.000000029142     0.000000062388
       3       -0.000000041917    -0.000000041722     0.000000003088
       4        0.000000001387    -0.000000009583     0.000000034926
       5       -0.000000107379    -0.000000077432    -0.000000105518
       6        0.000000037711     0.000000098678    -0.000000046043
       7       -0.000000007899    -0.000000055472    -0.000000024759
       8       -0.000000040032     0.000000000967     0.000000060829
       9       -0.000000020838     0.000000040503     0.000000016638
      10        0.000000070138    -0.000000009272     0.000000027315
      11        0.000000107178    -0.000000029998    -0.000000061761
      12       -0.000000065965     0.000000058536    -0.000000007184
      13        0.000000141735     0.000000074431    -0.000000035170
      14       -0.000000027064     0.000000016346     0.000000022124
      15       -0.000000060065    -0.000000087528     0.000000033257
      16       -0.000000003530     0.000000027085    -0.000000020098
      17        0.000000027374     0.000000068220    -0.000000091234
      18        0.000000005145    -0.000000049555    -0.000000057544
      19       -0.000000056346    -0.000000051642     0.000000214861
      20       -0.000000091196    -0.000000016786     0.000000007281
      21        0.000000084439    -0.000000011801    -0.000000221668
      22       -0.000000025199     0.000000064827     0.000000007443
      23        0.000000257159     0.000000021800     0.000000136722
      24       -0.000000050414    -0.000000075632     0.000000005061
      25       -0.000000374437    -0.000000339084     0.000000374160
      26        0.000000027618     0.000000124951    -0.000000122018
      27        0.000000180180     0.000000180877    -0.000000171131
      28        0.000000015058     0.000000038119     0.000000099504
      29       -0.000000030961     0.000000010314    -0.000000079092
      30        0.000000016736    -0.000000034612    -0.000000044965


*** tstop() called on wr4 at Fri Nov 10 10:19:54 2017
Module time:
	user time   =      86.09 seconds =       1.43 minutes
	system time =       1.41 seconds =       0.02 minutes
	total time  =         15 seconds =       0.25 minutes
Total time:
	user time   =     446.44 seconds =       7.44 minutes
	system time =       9.87 seconds =       0.16 minutes
	total time  =         83 seconds =       1.38 minutes

			-----------------------------------------
			 OPTKING 2.0: for geometry optimizations 
			  - R.A. King,  Bethel University        
			-----------------------------------------

	Previous internal coordinate definitions found.
	---Fragment 1 Geometry and Gradient---
	 O          -4.0776196131       -1.9154450661        0.6693355489
	 H          -4.6478490594       -2.8677348125        2.0769963327
	 C          -1.4934302442       -1.7051230342        0.7708773172
	 H          -0.6060068188       -3.5586296617        0.5493134577
	 O          -0.8025650096       -0.7276960460        3.1174461465
	 C           1.8297313085       -0.4921667498        3.5183064111
	 H           2.7290422856       -2.3266263493        3.2858669724
	 C           2.1754746733        0.3644657260        6.2334630380
	 H           1.3217711904        2.2192981246        6.4700262486
	 H           4.1662251456        0.5130189053        6.6524243256
	 O           1.1417505232       -1.3791263975        7.9263674801
	 H          -0.6064814632       -1.5319744146        7.5689168682
	 C           2.9007290017        1.3541780332        1.5878284105
	 H           2.0549515839        3.2030242324        1.8938027420
	 O           5.5192324046        1.4596411829        1.9122658247
	 H           6.2065226137        2.5094665674        0.6304582100
	 C           2.2252423977        0.4986617691       -1.0715760198
	 H           3.2111745461       -1.2754415277       -1.4344569188
[...]
	 D(23,25,27,30)   =        -0.698552	     -40.024068
	 D(24,23,25,26)   =         2.980556	     170.773277
	 D(24,23,25,27)   =        -0.176802	     -10.130001
	 D(26,25,27,28)   =        -1.766001	    -101.184409
	 D(26,25,27,29)   =         0.304985	      17.474344
	 D(26,25,27,30)   =         2.427314	     139.074862
	 R(1,25)          =         6.407484	       3.390694

	Current energy   :      -815.2889613211

	Energy change for the previous step:
		Projected    :         0.0000000000
		Actual       :         0.0000000007

	Performing BFGS update.
	Previous computed or guess Hessian on step 1.
	Steps to be used in Hessian update: 1
	Taking RFO optimization step.
	Going to follow RFO solution 1.
	Using RFO vector 1.
	Norm of target step-size    0.00002
	Projected energy change by RFO approximation:         0.0000000000

	Back-transformation to cartesian coordinates...
	Successfully converged to displaced geometry.

	--- Internal Coordinate Step in ANG or DEG, aJ/ANG or AJ/DEG ---
	 ---------------------------------------------------------------------------
	   Coordinate                Previous        Force       Change         New 
	   ----------                --------       ------       ------       ------
	    1 R(1,2)          =      0.948620    -0.000001    -0.000000     0.948619
	    2 R(1,3)          =      1.373068     0.000000     0.000000     1.373068
	    3 R(3,4)          =      1.093759    -0.000000    -0.000000     1.093759
	    4 R(3,5)          =      1.393962     0.000001     0.000000     1.393962
	    5 R(3,21)         =      1.526006     0.000000    -0.000000     1.526006
	    6 R(5,6)          =      1.414512    -0.000001    -0.000000     1.414512
	    7 R(6,7)          =      1.088103    -0.000000    -0.000000     1.088103
	    8 R(6,8)          =      1.517681    -0.000000    -0.000000     1.517681
	    9 R(6,13)         =      1.522962     0.000000     0.000000     1.522962
	   10 R(8,9)          =      1.087736    -0.000000    -0.000000     1.087736
	   11 R(8,10)         =      1.079403    -0.000001    -0.000000     1.079403
	   12 R(8,11)         =      1.397531     0.000001     0.000000     1.397531
	   13 R(11,12)        =      0.947722    -0.000001    -0.000000     0.947722
	   14 R(13,14)        =      1.087996    -0.000000    -0.000000     1.087996
	   15 R(13,15)        =      1.397363     0.000001     0.000000     1.397363
	   16 R(13,17)        =      1.520924     0.000000    -0.000000     1.520924
	   17 R(15,16)        =      0.949211    -0.000000    -0.000000     0.949211
	   18 R(17,18)        =      1.091079    -0.000000    -0.000000     1.091079
	   19 R(17,19)        =      1.398633     0.000002     0.000000     1.398633
	   20 R(17,21)        =      1.527809     0.000001    -0.000000     1.527809
	   21 R(19,20)        =      0.948638    -0.000000    -0.000000     0.948638
	   22 R(21,22)        =      1.079500    -0.000001    -0.000000     1.079500
	   23 R(21,23)        =      1.449492     0.000001     0.000000     1.449492
	   24 R(23,24)        =      0.996943    -0.000001    -0.000000     0.996943
	   25 R(23,25)        =      1.371266    -0.000001    -0.000000     1.371266
	   26 R(25,26)        =      1.195143    -0.000001    -0.000000     1.195143
	   27 R(25,27)        =      1.512752     0.000000     0.000000     1.512752
	   28 R(27,28)        =      1.085857     0.000000    -0.000000     1.085857
	   29 R(27,29)        =      1.079891    -0.000001    -0.000000     1.079891
	   30 R(27,30)        =      1.084663    -0.000000    -0.000000     1.084663
	   31 B(1,3,4)        =    110.531497    -0.000000    -0.000007   110.531491
	   32 B(1,3,5)        =    109.034640    -0.000000     0.000007   109.034647
	   33 B(1,3,21)       =    108.875804     0.000000     0.000012   108.875816
	   34 B(2,1,3)        =    109.216288    -0.000000    -0.000006   109.216281
	   35 B(3,5,6)        =    115.122359     0.000000     0.000014   115.122372
	   36 B(3,21,17)      =    109.025978    -0.000000    -0.000034   109.025944
	   37 B(3,21,22)      =    107.974725     0.000000     0.000003   107.974728
	   38 B(3,21,23)      =    111.995801    -0.000000     0.000008   111.995809
	   39 B(4,3,5)        =    108.398803     0.000000    -0.000002   108.398801
	   40 B(4,3,21)       =    110.161901    -0.000000    -0.000008   110.161892
	   41 B(5,3,21)       =    109.822774     0.000000    -0.000002   109.822772
	   42 B(5,6,7)        =    109.580614     0.000000     0.000010   109.580624
	   43 B(5,6,8)        =    106.678713    -0.000000    -0.000006   106.678707
	   44 B(5,6,13)       =    108.808049    -0.000000     0.000007   108.808056
	   45 B(6,8,9)        =    109.172263    -0.000000    -0.000005   109.172258
	   46 B(6,8,10)       =    109.503046    -0.000000     0.000002   109.503047
	   47 B(6,8,11)       =    111.252292     0.000000     0.000005   111.252297
	   48 B(6,13,14)      =    108.904420     0.000000     0.000006   108.904425
	   49 B(6,13,15)      =    108.193372    -0.000000     0.000006   108.193377
	   50 B(6,13,17)      =    110.013379     0.000000    -0.000004   110.013375
	   51 B(7,6,8)        =    108.709295    -0.000000    -0.000002   108.709293
	   52 B(7,6,13)       =    109.497731    -0.000000    -0.000006   109.497725
	   53 B(8,6,13)       =    113.487324     0.000000    -0.000002   113.487322
	   54 B(8,11,12)      =    108.088984     0.000000     0.000007   108.088991
	   55 B(9,8,10)       =    108.420214     0.000000    -0.000003   108.420211
	   56 B(9,8,11)       =    111.064283    -0.000000     0.000003   111.064286
	   57 B(10,8,11)      =    107.363493    -0.000000    -0.000001   107.363492
	   58 B(13,15,16)     =    108.392486     0.000000     0.000003   108.392489
	   59 B(13,17,18)     =    107.853702    -0.000000    -0.000016   107.853686
	   60 B(13,17,19)     =    106.871247     0.000000     0.000012   106.871260
	   61 B(13,17,21)     =    110.892531    -0.000000    -0.000024   110.892507
	   62 B(14,13,15)     =    110.715105    -0.000000    -0.000004   110.715101
	   63 B(14,13,17)     =    107.980197    -0.000000    -0.000005   107.980193
	   64 B(15,13,17)     =    111.015837    -0.000000     0.000001   111.015838
	   65 B(17,19,20)     =    109.502864     0.000000     0.000012   109.502876
	   66 B(17,21,22)     =    109.665565     0.000000     0.000002   109.665567
	   67 B(17,21,23)     =    110.822891     0.000000     0.000020   110.822911
	   68 B(18,17,19)     =    109.696190    -0.000000    -0.000001   109.696189
	   69 B(18,17,21)     =    109.184627     0.000000     0.000003   109.184630
	   70 B(19,17,21)     =    112.230393     0.000000     0.000024   112.230417
	   71 B(21,23,24)     =    116.466128    -0.000000    -0.000007   116.466120
	   72 B(21,23,25)     =    121.995645    -0.000000     0.000003   121.995648
	   73 B(22,21,23)     =    107.285042    -0.000000     0.000002   107.285044
	   74 B(23,25,26)     =    122.788362    -0.000000     0.000003   122.788364
	   75 B(23,25,27)     =    114.635331    -0.000000    -0.000001   114.635330
	   76 B(24,23,25)     =    116.188654     0.000000     0.000002   116.188656
	   77 B(25,27,28)     =    109.069303     0.000000     0.000024   109.069327
	   78 B(25,27,29)     =    109.018571    -0.000000    -0.000013   109.018558
	   79 B(25,27,30)     =    111.960522    -0.000000    -0.000008   111.960514
	   80 B(26,25,27)     =    122.569851     0.000000     0.000005   122.569856
	   81 B(28,27,29)     =    108.787793    -0.000000    -0.000002   108.787791
	   82 B(28,27,30)     =    108.219284    -0.000000     0.000000   108.219285
	   83 B(29,27,30)     =    109.729450     0.000000     0.000000   109.729451
	   84 D(1,3,5,6)      =    177.872844    -0.000000    -0.000004   177.872839
	   85 D(1,3,21,17)    =    174.966341     0.000000     0.000081   174.966422
	   86 D(1,3,21,22)    =     55.880645     0.000000     0.000095    55.880740
	   87 D(1,3,21,23)    =    -62.020344     0.000000     0.000087   -62.020257
	   88 D(2,1,3,4)      =     65.189924     0.000000    -0.000020    65.189904
	   89 D(2,1,3,5)      =    -53.871082     0.000000    -0.000018   -53.871100
	   90 D(2,1,3,21)     =   -173.677622    -0.000000    -0.000027  -173.677649
	   91 D(3,5,6,7)      =    -57.422790    -0.000000    -0.000067   -57.422857
	   92 D(3,5,6,8)      =   -174.937674    -0.000000    -0.000067  -174.937741
	   93 D(3,5,6,13)     =     62.272387    -0.000000    -0.000064    62.272322
	   94 D(3,21,17,13)   =    -52.805194    -0.000000    -0.000103   -52.805296
	   95 D(3,21,17,18)   =     65.897993    -0.000000    -0.000135    65.897858
	   96 D(3,21,17,19)   =   -172.251115    -0.000000    -0.000118  -172.251233
	   97 D(3,21,23,24)   =    -43.588417     0.000000     0.000019   -43.588398
	   98 D(3,21,23,25)   =    109.579872    -0.000000     0.000014   109.579887
	   99 D(4,3,5,6)      =     57.491386    -0.000000     0.000001    57.491387
	  100 D(4,3,21,17)    =    -63.675294    -0.000000     0.000075   -63.675220
	  101 D(4,3,21,22)    =    177.239009    -0.000000     0.000090   177.239099
	  102 D(4,3,21,23)    =     59.338021     0.000000     0.000081    59.338102
	  103 D(5,3,21,17)    =     55.649924     0.000000     0.000066    55.649990
	  104 D(5,3,21,22)    =    -63.435773     0.000000     0.000081   -63.435692
	  105 D(5,3,21,23)    =    178.663239     0.000000     0.000073   178.663311
	  106 D(5,6,8,9)      =    -63.304654     0.000000     0.000081   -63.304573
	  107 D(5,6,8,10)     =    178.137388     0.000000     0.000086   178.137474
	  108 D(5,6,8,11)     =     59.618494     0.000000     0.000084    59.618579
	  109 D(5,6,13,14)    =     62.897228    -0.000000     0.000013    62.897241
	  110 D(5,6,13,15)    =   -176.697312    -0.000000     0.000015  -176.697297
	  111 D(5,6,13,17)    =    -55.266640    -0.000000     0.000018   -55.266622
	  112 D(6,5,3,21)     =    -62.908079    -0.000000     0.000013   -62.908066
	  113 D(6,8,11,12)    =    -59.872785     0.000000     0.000092   -59.872693
	  114 D(6,13,15,16)   =    175.648872     0.000000     0.000011   175.648884
	  115 D(6,13,17,18)   =    -66.198644     0.000000     0.000087   -66.198557
	  116 D(6,13,17,19)   =    175.916604     0.000000     0.000089   175.916693
	  117 D(6,13,17,21)   =     53.305421     0.000000     0.000067    53.305487
	  118 D(7,6,8,9)      =    178.606779    -0.000000     0.000074   178.606853
	  119 D(7,6,8,10)     =     60.048821     0.000000     0.000079    60.048900
	  120 D(7,6,8,11)     =    -58.470072    -0.000000     0.000077   -58.469995
	  121 D(7,6,13,14)    =   -177.356070     0.000000     0.000026  -177.356045
	  122 D(7,6,13,15)    =    -56.950611     0.000000     0.000027   -56.950583
	  123 D(7,6,13,17)    =     64.480062     0.000000     0.000030    64.480092
	  124 D(8,6,13,14)    =    -55.695746     0.000000     0.000017   -55.695728
	  125 D(8,6,13,15)    =     64.709714     0.000000     0.000019    64.709733
	  126 D(8,6,13,17)    =   -173.859614     0.000000     0.000022  -173.859592
	  127 D(9,8,6,13)     =     56.507393    -0.000000     0.000084    56.507478
	  128 D(9,8,11,12)    =     61.957214     0.000000     0.000091    61.957304
	  129 D(10,8,6,13)    =    -62.050565     0.000000     0.000090   -62.050475
	  130 D(10,8,11,12)   =   -179.669939     0.000000     0.000088  -179.669851
	  131 D(11,8,6,13)    =    179.430542     0.000000     0.000087   179.430629
	  132 D(13,17,19,20)  =   -171.535931    -0.000000    -0.000089  -171.536020
	  133 D(13,17,21,22)  =     65.221574     0.000000    -0.000118    65.221456
	  134 D(13,17,21,23)  =   -176.516960    -0.000000    -0.000103  -176.517063
	  135 D(14,13,15,16)  =    -65.082896     0.000000     0.000019   -65.082877
	  136 D(14,13,17,18)  =    175.068613    -0.000000     0.000085   175.068698
	  137 D(14,13,17,19)  =     57.183860     0.000000     0.000088    57.183947
	  138 D(14,13,17,21)  =    -65.427323    -0.000000     0.000065   -65.427258
	  139 D(15,13,17,18)  =     53.530599     0.000000     0.000092    53.530691
	  140 D(15,13,17,19)  =    -64.354154     0.000000     0.000095   -64.354059
	  141 D(15,13,17,21)  =    173.034663     0.000000     0.000072   173.034736
	  142 D(16,15,13,17)  =     54.839521    -0.000000     0.000012    54.839532
	  143 D(17,21,23,24)  =     78.402526     0.000000    -0.000005    78.402521
	  144 D(17,21,23,25)  =   -128.429185    -0.000000    -0.000009  -128.429194
	  145 D(18,17,19,20)  =     71.794054    -0.000000    -0.000077    71.793977
	  146 D(18,17,21,22)  =   -176.075239    -0.000000    -0.000150  -176.075389
	  147 D(18,17,21,23)  =    -57.813774    -0.000000    -0.000135   -57.813908
	  148 D(19,17,21,22)  =    -54.224347    -0.000000    -0.000133   -54.224480
	  149 D(19,17,21,23)  =     64.037118    -0.000000    -0.000118    64.037000
	  150 D(20,19,17,21)  =    -49.764547    -0.000000    -0.000097   -49.764643
	  151 D(21,23,25,26)  =     17.535641     0.000000    -0.000162    17.535480
	  152 D(21,23,25,27)  =   -163.367637     0.000000     0.000321  -163.367315
	  153 D(22,21,23,24)  =   -161.899783     0.000000     0.000010  -161.899773
	  154 D(22,21,23,25)  =     -8.731494     0.000000     0.000005    -8.731489
	  155 D(23,25,27,28)  =     79.716661    -0.000000    -0.000259    79.716403
	  156 D(23,25,27,29)  =   -161.624585    -0.000000    -0.000255  -161.624840
	  157 D(23,25,27,30)  =    -40.024068    -0.000000    -0.000269   -40.024337
	  158 D(24,23,25,26)  =    170.773277    -0.000000    -0.000168   170.773109
	  159 D(24,23,25,27)  =    -10.130001     0.000000     0.000315   -10.129686
	  160 D(26,25,27,28)  =   -101.184409     0.000000     0.000223  -101.184186
	  161 D(26,25,27,29)  =     17.474344     0.000000     0.000226    17.474571
	  162 D(26,25,27,30)  =    139.074862     0.000000     0.000212   139.075074
	  163 R(1,25)         =      3.390694    -0.000000     0.000000     3.390694
	 ---------------------------------------------------------------------------
	Successfully symmetrized geometry.

  ==> Convergence Check <==

  Measures of convergence in internal coordinates in au.
  Criteria marked as inactive (o), active & met (*), and active & unmet ( ).
  ---------------------------------------------------------------------------------------------
   Step     Total Energy     Delta E     MAX Force     RMS Force      MAX Disp      RMS Disp   
  ---------------------------------------------------------------------------------------------
    Convergence Criteria             o    2.00e-06 *    1.00e-06 *    6.00e-06 *    4.00e-06 *
  ---------------------------------------------------------------------------------------------
      2    -815.28896132    6.75e-10 o    2.36e-07 *    5.39e-08 *    5.61e-06 *    1.37e-06 *  ~
  ---------------------------------------------------------------------------------------------


  **** Optimization is complete! (in 2 steps) ****

  ==> Optimization Summary <==

  Measures of convergence in internal coordinates in au.
  --------------------------------------------------------------------------------------------------------------- ~
   Step         Total Energy             Delta E       MAX Force       RMS Force        MAX Disp        RMS Disp  ~
  --------------------------------------------------------------------------------------------------------------- ~
      1    -815.288961321755   -815.288961321755      0.00000017      0.00000004      0.00000841      0.00000230  ~
      2    -815.288961321080      0.000000000675      0.00000024      0.00000005      0.00000561      0.00000137  ~
  --------------------------------------------------------------------------------------------------------------- ~

	Writing optimization data to binary file.
	Final energy is   -815.2889613210799
	Final (previous) structure:
	Cartesian Geometry (in Angstrom)
	    O    -2.1577833646  -1.0136098733   0.3541971174
	    H    -2.4595357912  -1.5175399030   1.0990991216
	    C    -0.7902892478  -0.9023122475   0.4079307069
	    H    -0.3206849967  -1.8831457108   0.2906841622
	    O    -0.4246991115  -0.3850801623   1.6496814497
	    C     0.9682521063  -0.2604434268   1.8618075656
	    H     1.4441469788  -1.2311976370   1.7388059123
	    C     1.1512116150   0.1928669555   3.2986065703
	    H     0.6994511889   1.1744019866   3.4237904297
	    H     2.2046713929   0.2714779122   3.5203113350
	    O     0.6041883548  -0.7298022573   4.1944530174
	    H    -0.3209361678  -0.8106859444   4.0052983004
	    C     1.5349996760   0.7166001516   0.8402426060
	    H     1.0874335430   1.6949674224   1.0021572487
	    O     2.9206519974   0.7724088467   1.0119274912
	    H     3.2843503117   1.3279525132   0.3336241157
	    C     1.1775475604   0.2638804430  -0.5670536070
	    H     1.6992803826  -0.6749345873  -0.7590819081
	    O     1.6447114494   1.2502423324  -1.4417084326
	    H     1.3283288472   1.0720328066  -2.3180972105
	    C    -0.3275685447   0.0383232909  -0.7010276839
	    H    -0.8476559719   0.9765811849  -0.5806050718
	    N    -0.6571085904  -0.4708923476  -2.0175116365
	    H    -0.4879297174  -1.4408535897  -2.1738753730
	    C    -1.6223176035   0.1089384099  -2.8001600610
	    O    -2.0337096090   1.2144295326  -2.6077707567
	    C    -2.1112454991  -0.7547168474  -3.9418555362
	    H    -2.8276949734  -1.4756626323  -3.5597275065
	    H    -2.6032839821  -0.1284717151  -4.6711567665
	    H    -1.3009535899  -1.2995328660  -4.4141854317
	Saving final (previous) structure.
			--------------------------
			 OPTKING Finished Execution 
			--------------------------

    Final optimized geometry and variables:
    Molecular point group: c1
    Full point group: C1

    Geometry (in Angstrom), charge = 0, multiplicity = 1:

    O           -2.157783364571    -1.013609873272     0.354197117374
    H           -2.459535791184    -1.517539903050     1.099099121564
    C           -0.790289247834    -0.902312247520     0.407930706883
    H           -0.320684996739    -1.883145710758     0.290684162210
    O           -0.424699111510    -0.385080162342     1.649681449736
    C            0.968252106318    -0.260443426832     1.861807565607
    H            1.444146978843    -1.231197636958     1.738805912270
    C            1.151211614950     0.192866955508     3.298606570294
    H            0.699451188949     1.174401986618     3.423790429724
    H            2.204671392911     0.271477912238     3.520311334983
    O            0.604188354775    -0.729802257334     4.194453017375
    H           -0.320936167779    -0.810685944360     4.005298300374
    C            1.534999675982     0.716600151561     0.840242605989
    H            1.087433542980     1.694967422367     1.002157248650
    O            2.920651997449     0.772408846713     1.011927491222
    H            3.284350311747     1.327952513207     0.333624115720
    C            1.177547560443     0.263880443027    -0.567053606965
    H            1.699280382607    -0.674934587325    -0.759081908133
    O            1.644711449374     1.250242332418    -1.441708432577
    H            1.328328847179     1.072032806608    -2.318097210468
    C           -0.327568544680     0.038323290932    -0.701027683919
    H           -0.847655971934     0.976581184890    -0.580605071783
    N           -0.657108590422    -0.470892347613    -2.017511636475
    H           -0.487929717366    -1.440853589715    -2.173875373022
    C           -1.622317603488     0.108938409940    -2.800160060950
    O           -2.033709609033     1.214429532599    -2.607770756703
    C           -2.111245499057    -0.754716847403    -3.941855536220
    H           -2.827694973396    -1.475662632265    -3.559727506455
    H           -2.603283982129    -0.128471715054    -4.671156766474
    H           -1.300953589909    -1.299532866026    -4.414185431745

	Cleaning optimization helper files.

*** Psi4 exiting successfully. Buy a developer a beer!
