    -----------------------------------------------------------------------
          Psi4: An Open-Source Ab Initio Electronic Structure Package
                              Psi4 0.4.183 Driver

                          Git: Rev {master} 5801071 

    J. M. Turney, A. C. Simmonett, R. M. Parrish, E. G. Hohenstein,
    F. A. Evangelista, J. T. Fermann, B. J. Mintz, L. A. Burns, J. J. Wilke,
    M. L. Abrams, N. J. Russ, M. L. Leininger, C. L. Janssen, E. T. Seidl,
    W. D. Allen, H. F. Schaefer, R. A. King, E. F. Valeev, C. D. Sherrill,
    and T. D. Crawford, WIREs Comput. Mol. Sci. 2, 556-565 (2012)
    (doi: 10.1002/wcms.93)

                         Additional Contributions by
    A. E. DePrince, M. Saitow, U. Bozkaya, A. Yu. Sokolov
    -----------------------------------------------------------------------


    Psi4 started on: Tue Mar 22 15:56:30 2016

    Process ID:  31503
    PSI4DATADIR: /home/karl/miniconda/share/psi4
    Memory level set to 256.000 MB

  ==> Input File <==

--------------------------------------------------------------------------
memory 10 Gb

molecule molecule_001 {
0 1
C          1.95400        0.13200       -0.00000
H          2.73800       -0.61900        0.00000
H          2.09600        0.75700       -0.87700
H          2.09600        0.75800        0.87700
C          0.56800       -0.51200        0.00000
H          0.47000       -1.15700        0.87100
H          0.47000       -1.15800       -0.87000
C         -0.56800        0.51200       -0.00000
H         -0.47000        1.15800        0.87000
H         -0.47000        1.15700       -0.87100
C         -1.95400       -0.13200        0.00000
H         -2.73800        0.61900       -0.00000
H         -2.09600       -0.75800       -0.87700
H         -2.09600       -0.75700        0.87700
}

set globals {
  basis 6-31G(d)
}
optimize('hf')
--------------------------------------------------------------------------

  Memory set to  10.000 GiB by Python script.
gradient() will perform analytic gradient computation.

*** tstart() called on dakota
*** at Tue Mar 22 15:56:30 2016


         ---------------------------------------------------------
                                   SCF
            by Justin Turney, Rob Parrish, and Andy Simmonett
                              RHF Reference
                        8 Threads,  10000 MiB Core
         ---------------------------------------------------------

  ==> Geometry <==

    Molecular point group: ci
    Full point group: Ci

    Geometry (in Angstrom), charge = 0, multiplicity = 1:

       Center              X                  Y                   Z               Mass       
    ------------   -----------------  -----------------  -----------------  -----------------
           C          1.954000000000     0.132000000000     0.000000000000    12.000000000000
           H          2.738000000000    -0.619000000000     0.000000000000     1.007825032070
           H          2.096000000000     0.757000000000    -0.877000000000     1.007825032070
           H          2.096000000000     0.758000000000     0.877000000000     1.007825032070
           C          0.568000000000    -0.512000000000     0.000000000000    12.000000000000
           H          0.470000000000    -1.157000000000     0.871000000000     1.007825032070
           H          0.470000000000    -1.158000000000    -0.870000000000     1.007825032070
           C         -0.568000000000     0.512000000000     0.000000000000    12.000000000000
           H         -0.470000000000     1.158000000000     0.870000000000     1.007825032070
           H         -0.470000000000     1.157000000000    -0.871000000000     1.007825032070
           C         -1.954000000000    -0.132000000000     0.000000000000    12.000000000000
           H         -2.738000000000     0.619000000000     0.000000000000     1.007825032070
           H         -2.096000000000    -0.758000000000    -0.877000000000     1.007825032070
           H         -2.096000000000    -0.757000000000     0.877000000000     1.007825032070

  Running in ci symmetry.

  Rotational constants: A =      0.78952  B =      0.12106  C =      0.11368 [cm^-1]
  Rotational constants: A =  23669.27537  B =   3629.43219  C =   3408.14721 [MHz]
  Nuclear repulsion =  130.846105617852174

  Charge       = 0
  Multiplicity = 1
  Electrons    = 34
  Nalpha       = 17
  Nbeta        = 17

  ==> Algorithm <==

  SCF Algorithm Type is DF.
  DIIS enabled.
  MOM disabled.
  Fractional occupation disabled.
  Guess Type is CORE.
  Energy threshold   = 1.00e-08
  Density threshold  = 1.00e-08
  Integral threshold = 0.00e+00

  ==> Primary Basis <==

  Basis Set: 6-31G(D)
    Number of shells: 44
    Number of basis function: 80
    Number of Cartesian functions: 80
    Spherical Harmonics?: false
    Max angular momentum: 2

  ==> Pre-Iterations <==

   -------------------------------------------------------
    Irrep   Nso     Nmo     Nalpha   Nbeta   Ndocc  Nsocc
   -------------------------------------------------------
     Ag        40      40       0       0       0       0
     Au        40      40       0       0       0       0
   -------------------------------------------------------
    Total      80      80      17      17      17       0
   -------------------------------------------------------

  ==> Integral Setup <==

  ==> DFJK: Density-Fitted J/K Matrices <==

    J tasked:                  Yes
    K tasked:                  Yes
    wK tasked:                  No
    OpenMP threads:              8
    Integrals threads:           8
    Memory (MB):              7152
    Algorithm:                Core
    Integral Cache:           NONE
    Schwarz Cutoff:          1E-12
    Fitting Condition:       1E-12

   => Auxiliary Basis Set <=

  Basis Set: 
    Number of shells: 186
    Number of basis function: 574
    Number of Cartesian functions: 574
    Spherical Harmonics?: false
    Max angular momentum: 3

  Minimum eigenvalue in the overlap matrix is 4.6233744091E-03.
  Using Symmetric Orthogonalization.
  SCF Guess: Core (One-Electron) Hamiltonian.

  ==> Iterations <==

                           Total Energy        Delta E     RMS |[F,P]|

    Occupation by irrep:
             Ag    Au 
    DOCC [     9,    8 ]

   @DF-RHF iter   1:  -122.40113242392144   -1.22401e+02   1.13400e-01 
    Occupation by irrep:
             Ag    Au 
    DOCC [     8,    9 ]

   @DF-RHF iter   2:  -128.84397448175702   -6.44284e+00   6.87695e-02 DIIS
    Occupation by irrep:
             Ag    Au 
    DOCC [     9,    8 ]

   @DF-RHF iter   3:  -145.42717000268254   -1.65832e+01   7.58146e-02 DIIS
   @DF-RHF iter   4:  -156.03281946365996   -1.06056e+01   2.54365e-02 DIIS
   @DF-RHF iter   5:  -156.91274466285921   -8.79925e-01   1.41868e-02 DIIS
   @DF-RHF iter   6:  -157.27321138403050   -3.60467e-01   3.08957e-03 DIIS
   @DF-RHF iter   7:  -157.29749592772504   -2.42845e-02   4.75087e-04 DIIS
   @DF-RHF iter   8:  -157.29833066763723   -8.34740e-04   1.24740e-04 DIIS
   @DF-RHF iter   9:  -157.29839446485522   -6.37972e-05   2.13787e-05 DIIS
   @DF-RHF iter  10:  -157.29839635675660   -1.89190e-06   4.48540e-06 DIIS
   @DF-RHF iter  11:  -157.29839641787783   -6.11212e-08   9.12517e-07 DIIS
   @DF-RHF iter  12:  -157.29839642058317   -2.70535e-09   1.08838e-07 DIIS
   @DF-RHF iter  13:  -157.29839642062342   -4.02451e-11   1.53759e-08 DIIS
   @DF-RHF iter  14:  -157.29839642062421   -7.95808e-13   3.09170e-09 DIIS

  ==> Post-Iterations <==

    Orbital Energies (a.u.)
    -----------------------

    Doubly Occupied:                                                      

       1Ag   -11.213826     1Au   -11.213232     2Ag   -11.207357  
       2Au   -11.207354     3Ag    -1.069732     3Au    -0.980977  
       4Ag    -0.862353     4Au    -0.789546     5Au    -0.638648  
       5Ag    -0.584836     6Au    -0.574256     6Ag    -0.568552  
       7Au    -0.515359     8Au    -0.496372     7Ag    -0.468513  
       8Ag    -0.462308     9Ag    -0.455883  

    Virtual:                                                              

      10Ag     0.232830     9Au     0.262163    10Au     0.285352  
      11Au     0.294833    11Ag     0.321681    12Ag     0.336801  
      12Au     0.338120    13Ag     0.340798    13Au     0.353302  
      14Ag     0.353576    14Au     0.420581    15Ag     0.424601  
      15Au     0.442496    16Au     0.698269    16Ag     0.700558  
      17Ag     0.753358    17Au     0.754649    18Ag     0.757961  
      18Au     0.847416    19Au     0.866668    19Ag     0.931211  
      20Au     0.966412    21Au     1.027508    20Ag     1.062706  
      21Ag     1.112903    22Au     1.136662    22Ag     1.172872  
      23Au     1.189052    23Ag     1.192205    24Au     1.203615  
      24Ag     1.209818    25Ag     1.229178    25Au     1.235252  
      26Au     1.245295    26Ag     1.276911    27Ag     1.284175  
      27Au     1.615604    28Ag     1.696749    28Au     1.707454  
      29Au     1.740623    29Ag     1.913166    30Au     1.929878  
      30Ag     2.141743    31Au     2.190103    31Ag     2.223487  
      32Au     2.274344    32Ag     2.285422    33Au     2.337511  
      33Ag     2.386980    34Ag     2.502023    35Ag     2.607687  
      34Au     2.613084    35Au     2.649278    36Ag     2.744497  
      37Ag     2.752693    36Au     2.756190    37Au     2.900138  
      38Ag     3.033530    38Au     3.104108    39Ag     4.566798  
      39Au     4.675635    40Ag     4.794610    40Au     4.943722  

    Final Occupation by Irrep:
             Ag    Au 
    DOCC [     9,    8 ]

  Energy converged.

  @DF-RHF Final Energy:  -157.29839642062421

   => Energetics <=

    Nuclear Repulsion Energy =            130.8461056178521744
    One-Electron Energy =                -469.6707976476248518
    Two-Electron Energy =                 181.5262956091484341
    DFT Exchange-Correlation Energy =       0.0000000000000000
    Empirical Dispersion Energy =           0.0000000000000000
    PCM Polarization Energy =               0.0000000000000000
    EFP Energy =                            0.0000000000000000
    Total Energy =                       -157.2983964206242433

    Alert: EFP and PCM quantities not currently incorporated into SCF psivars.

Properties will be evaluated at   0.000000,   0.000000,   0.000000 Bohr
  ==> Properties <==


Properties computed using the SCF density matrix

  Nuclear Dipole Moment: (a.u.)
     X:    -0.0000      Y:     0.0000      Z:     0.0000

  Electronic Dipole Moment: (a.u.)
     X:     0.0000      Y:     0.0000      Z:     0.0000

  Dipole Moment: (a.u.)
     X:    -0.0000      Y:     0.0000      Z:     0.0000     Total:     0.0000

  Dipole Moment: (Debye)
     X:    -0.0000      Y:     0.0000      Z:     0.0000     Total:     0.0000


  Saving occupied orbitals to File 180.

*** tstop() called on dakota at Tue Mar 22 15:56:31 2016
Module time:
	user time   =       6.48 seconds =       0.11 minutes
	system time =       0.20 seconds =       0.00 minutes
	total time  =          1 seconds =       0.02 minutes
Total time:
	user time   =       6.48 seconds =       0.11 minutes
	system time =       0.20 seconds =       0.00 minutes
	total time  =          1 seconds =       0.02 minutes

*** tstart() called on dakota
*** at Tue Mar 22 15:56:31 2016


         ------------------------------------------------------------
                                   SCF GRAD                          
                          Rob Parrish, Justin Turney,                
                       Andy Simmonett, and Alex Sokolov              
         ------------------------------------------------------------

  ==> Geometry <==

    Molecular point group: ci
    Full point group: Ci

    Geometry (in Angstrom), charge = 0, multiplicity = 1:

       Center              X                  Y                   Z               Mass       
    ------------   -----------------  -----------------  -----------------  -----------------
           C          1.954000000000     0.132000000000     0.000000000000    12.000000000000
           H          2.738000000000    -0.619000000000     0.000000000000     1.007825032070
           H          2.096000000000     0.757000000000    -0.877000000000     1.007825032070
           H          2.096000000000     0.758000000000     0.877000000000     1.007825032070
           C          0.568000000000    -0.512000000000     0.000000000000    12.000000000000
           H          0.470000000000    -1.157000000000     0.871000000000     1.007825032070
           H          0.470000000000    -1.158000000000    -0.870000000000     1.007825032070
           C         -0.568000000000     0.512000000000     0.000000000000    12.000000000000
           H         -0.470000000000     1.158000000000     0.870000000000     1.007825032070
           H         -0.470000000000     1.157000000000    -0.871000000000     1.007825032070
           C         -1.954000000000    -0.132000000000     0.000000000000    12.000000000000
           H         -2.738000000000     0.619000000000     0.000000000000     1.007825032070
           H         -2.096000000000    -0.758000000000    -0.877000000000     1.007825032070
           H         -2.096000000000    -0.757000000000     0.877000000000     1.007825032070

  Nuclear repulsion =  130.846105617852174

  ==> Basis Set <==

  Basis Set: 6-31G(D)
    Number of shells: 44
    Number of basis function: 80
    Number of Cartesian functions: 80
    Spherical Harmonics?: false
    Max angular momentum: 2

  ==> DFJKGrad: Density-Fitted SCF Gradients <==

    Gradient:                    1
    J tasked:                  Yes
    K tasked:                  Yes
    wK tasked:                  No
    OpenMP threads:              8
    Integrals threads:           8
    Memory (MB):              7152
    Schwarz Cutoff:          0E+00
    Fitting Condition:       1E-12

   => Auxiliary Basis Set <=

  Basis Set: 
    Number of shells: 186
    Number of basis function: 574
    Number of Cartesian functions: 574
    Spherical Harmonics?: false
    Max angular momentum: 3


  -Total Gradient:
     Atom            X                  Y                   Z
    ------   -----------------  -----------------  -----------------
       1       -0.000142015928    -0.000054813545    -0.000216394867
       2        0.000023849898     0.000060047827    -0.000042200937
       3        0.000044641242    -0.000110788038     0.000112830865
       4        0.000091532234     0.000164584573     0.000201211959
       5       -0.000415928957    -0.000081357959    -0.000286822553
       6        0.000063663128    -0.000026161536     0.000105296467
       7        0.000090234152    -0.000015069619     0.000024774868
       8        0.000415928957     0.000081357959     0.000286822553
       9       -0.000090234152     0.000015069619    -0.000024774868
      10       -0.000063663128     0.000026161536    -0.000105296467
      11        0.000142015928     0.000054813545     0.000216394867
      12       -0.000023849898    -0.000060047827     0.000042200937
      13       -0.000091532234    -0.000164584573    -0.000201211959
      14       -0.000044641242     0.000110788038    -0.000112830865


*** tstop() called on dakota at Tue Mar 22 15:56:33 2016
Module time:
	user time   =      10.13 seconds =       0.17 minutes
	system time =       0.38 seconds =       0.01 minutes
	total time  =          2 seconds =       0.03 minutes
Total time:
	user time   =      16.62 seconds =       0.28 minutes
	system time =       0.58 seconds =       0.01 minutes
	total time  =          3 seconds =       0.05 minutes

			-----------------------------------------
			 OPTKING 2.0: for geometry optimizations 
			  - R.A. King,  Bethel University        
			-----------------------------------------

	Internal coordinates to be generated automatically.
	Detected frag 1 with atoms:  1 2 3 4 5 6 7 8 9 10 11 12 13 14
	---Fragment 1 Bond Connectivity---
	 1 : 2 3 4 5
	 2 : 1
	 3 : 1
	 4 : 1
	 5 : 1 6 7 8
	 6 : 5
	 7 : 5
	 8 : 5 9 10 11
	 9 : 8
	 10 : 8
	 11 : 8 12 13 14
	 12 : 11
	 13 : 11
	 14 : 11

	---Fragment 1 Geometry and Gradient---
	 C           3.6925248637        0.2494438495        0.0000000000
	 H           5.1740701518       -1.1697404763        0.0000000000
	 H           3.9608659745        1.4305226826       -1.6572898185
	 H           3.9608659745        1.4324124087        1.6572898185
	 C           1.0733644435       -0.9675397800        0.0000000000
	 H           0.8881712825       -2.1864131357        1.6459514617
	 H           0.8881712825       -2.1883028619       -1.6440617356
	 C          -1.0733644435        0.9675397800        0.0000000000
	 H          -0.8881712825        2.1883028619        1.6440617356
	 H          -0.8881712825        2.1864131357       -1.6459514617
	 C          -3.6925248637       -0.2494438495        0.0000000000
	 H          -5.1740701518        1.1697404763        0.0000000000
	 H          -3.9608659745       -1.4324124087       -1.6572898185
	 H          -3.9608659745       -1.4305226826        1.6572898185
	            -0.0001420159       -0.0000548135       -0.0002163949
	             0.0000238499        0.0000600478       -0.0000422009
	             0.0000446412       -0.0001107880        0.0001128309
	             0.0000915322        0.0001645846        0.0002012120
	            -0.0004159290       -0.0000813580       -0.0002868226
	             0.0000636631       -0.0000261615        0.0001052965
	             0.0000902342       -0.0000150696        0.0000247749
	             0.0004159290        0.0000813580        0.0002868226
	            -0.0000902342        0.0000150696       -0.0000247749
	            -0.0000636631        0.0000261615       -0.0001052965
	             0.0001420159        0.0000548135        0.0002163949
	            -0.0000238499       -0.0000600478        0.0000422009
	            -0.0000915322       -0.0001645846       -0.0002012120
	            -0.0000446412        0.0001107880       -0.0001128309

	Previous optimization step data not found.  Starting new optimization.

	---Fragment 1 Intrafragment Coordinates---
	 - Coordinate -           - BOHR/RAD -       - ANG/DEG -
	 R(1,2)           =         2.051600	       1.085660
	 R(1,3)           =         2.052697	       1.086240
	 R(1,4)           =         2.053785	       1.086816
	 R(1,5)           =         2.888088	       1.528310
	 R(5,6)           =         2.056479	       1.088242
	 R(5,7)           =         2.056088	       1.088035
	 R(5,8)           =         2.890152	       1.529402
	 R(8,9)           =         2.056088	       1.088035
	 R(8,10)          =         2.056479	       1.088242
	 R(8,11)          =         2.888088	       1.528310
	 R(11,12)         =         2.051600	       1.085660
	 R(11,13)         =         2.053785	       1.086816
	 R(11,14)         =         2.052697	       1.086240
	 B(1,5,6)         =         1.908605	     109.354983
	 B(1,5,7)         =         1.909082	     109.382329
	 B(1,5,8)         =         1.973033	     113.046464
	 B(2,1,3)         =         1.879279	     107.674740
	 B(2,1,4)         =         1.879778	     107.703346
	 B(2,1,5)         =         1.942723	     111.309806
	 B(3,1,4)         =         1.878645	     107.638408
	 B(3,1,5)         =         1.940144	     111.162049
	 B(4,1,5)         =         1.940354	     111.174122
	 B(5,8,9)         =         1.907763	     109.306776
	 B(5,8,10)        =         1.907045	     109.265615
	 B(5,8,11)        =         1.973033	     113.046464
	 B(6,5,7)         =         1.854558	     106.258360
	 B(6,5,8)         =         1.907045	     109.265615
	 B(7,5,8)         =         1.907763	     109.306776
	 B(8,11,12)       =         1.942723	     111.309806
	 B(8,11,13)       =         1.940354	     111.174122
	 B(8,11,14)       =         1.940144	     111.162049
	 B(9,8,10)        =         1.854558	     106.258360
	 B(9,8,11)        =         1.909082	     109.382329
	 B(10,8,11)       =         1.908605	     109.354983
	 B(12,11,13)      =         1.879778	     107.703346
	 B(12,11,14)      =         1.879279	     107.674740
	 B(13,11,14)      =         1.878645	     107.638408
	 D(1,5,8,9)       =        -1.010796	     -57.914321
	 D(1,5,8,10)      =         1.011925	      57.979046
	 D(1,5,8,11)      =         3.141593	     180.000000
	 D(2,1,5,6)       =         1.012800	      58.029167
	 D(2,1,5,7)       =        -1.011535	     -57.956663
	 D(2,1,5,8)       =         3.141593	     180.000000
	 D(3,1,5,6)       =         3.107734	     178.060040
	 D(3,1,5,7)       =         1.083399	      62.074210
	 D(3,1,5,8)       =        -1.046659	     -59.969127
	 D(4,1,5,6)       =        -1.082909	     -62.046094
	 D(4,1,5,7)       =        -3.107243	    -178.031924
	 D(4,1,5,8)       =         1.045884	      59.924738
	 D(5,8,11,12)     =         3.141593	     180.000000
	 D(5,8,11,13)     =        -1.045884	     -59.924738
	 D(5,8,11,14)     =         1.046659	      59.969127
	 D(6,5,8,9)       =         1.118872	      64.106633
	 D(6,5,8,10)      =         3.141593	     180.000000
	 D(6,5,8,11)      =        -1.011925	     -57.979046
	 D(7,5,8,9)       =         3.141593	     180.000000
	 D(7,5,8,10)      =        -1.118872	     -64.106633
	 D(7,5,8,11)      =         1.010796	      57.914321
	 D(9,8,11,12)     =         1.011535	      57.956663
	 D(9,8,11,13)     =         3.107243	     178.031924
	 D(9,8,11,14)     =        -1.083399	     -62.074210
	 D(10,8,11,12)    =        -1.012800	     -58.029167
	 D(10,8,11,13)    =         1.082909	      62.046094
	 D(10,8,11,14)    =        -3.107734	    -178.060040

	Current energy   :      -157.2983964206

	Generating empirical Hessian (Schlegel '84) for each fragment.
	Taking RFO optimization step.
	Going to follow RFO solution 1.
	Using RFO vector 1.
	Norm of target step-size    0.00468
	Projected energy change by RFO approximation:        -0.0000010586

	Back-transformation to cartesian coordinates...
	Could not converge backtransformation.
	Using first guess instead.

	--- Internal Coordinate Step in ANG or DEG, aJ/ANG or AJ/DEG ---
	 ---------------------------------------------------------------------------
	   Coordinate                Previous        Force       Change         New 
	   ----------                --------       ------       ------       ------
	    1 R(1,2)          =      1.085660     0.000200     0.000037     1.085696
	    2 R(1,3)          =      1.086240     0.001228     0.000224     1.086464
	    3 R(1,4)          =      1.086816    -0.002217    -0.000405     1.086411
	    4 R(1,5)          =      1.528310    -0.000339    -0.000074     1.528237
	    5 R(5,6)          =      1.088242    -0.000775    -0.000142     1.088100
	    6 R(5,7)          =      1.088035     0.000156     0.000029     1.088064
	    7 R(5,8)          =      1.529402     0.001143     0.000249     1.529652
	    8 R(8,9)          =      1.088035     0.000156     0.000029     1.088064
	    9 R(8,10)         =      1.088242    -0.000775    -0.000142     1.088100
	   10 R(8,11)         =      1.528310    -0.000339    -0.000074     1.528237
	   11 R(11,12)        =      1.085660     0.000200     0.000037     1.085696
	   12 R(11,13)        =      1.086816    -0.002217    -0.000405     1.086411
	   13 R(11,14)        =      1.086240     0.001228     0.000224     1.086464
	   14 B(1,5,6)        =    109.354983     0.000001     0.045957   109.400941
	   15 B(1,5,7)        =    109.382329     0.000000     0.005644   109.387974
	   16 B(1,5,8)        =    113.046464     0.000011     0.042472   113.088935
	   17 B(2,1,3)        =    107.674740     0.000006     0.046114   107.720854
	   18 B(2,1,4)        =    107.703346     0.000004     0.010238   107.713584
	   19 B(2,1,5)        =    111.309806    -0.000004    -0.014048   111.295758
	   20 B(3,1,4)        =    107.638408     0.000003     0.005968   107.644376
	   21 B(3,1,5)        =    111.162049    -0.000003    -0.009797   111.152252
	   22 B(4,1,5)        =    111.174122    -0.000005    -0.034887   111.139235
	   23 B(5,8,9)        =    109.306776    -0.000009    -0.069982   109.236794
	   24 B(5,8,10)       =    109.265615    -0.000005    -0.009518   109.256097
	   25 B(5,8,11)       =    113.046464     0.000011     0.042472   113.088935
	   26 B(6,5,7)        =    106.258360     0.000001    -0.018473   106.239887
	   27 B(6,5,8)        =    109.265615    -0.000005    -0.009518   109.256097
	   28 B(7,5,8)        =    109.306776    -0.000009    -0.069982   109.236794
	   29 B(8,11,12)      =    111.309806    -0.000004    -0.014048   111.295758
	   30 B(8,11,13)      =    111.174122    -0.000005    -0.034887   111.139235
	   31 B(8,11,14)      =    111.162049    -0.000003    -0.009797   111.152252
	   32 B(9,8,10)       =    106.258360     0.000001    -0.018473   106.239887
	   33 B(9,8,11)       =    109.382329     0.000000     0.005644   109.387974
	   34 B(10,8,11)      =    109.354983     0.000001     0.045957   109.400941
	   35 B(12,11,13)     =    107.703346     0.000004     0.010238   107.713584
	   36 B(12,11,14)     =    107.674740     0.000006     0.046114   107.720854
	   37 B(13,11,14)     =    107.638408     0.000003     0.005968   107.644376
	   38 D(1,5,8,9)      =    -57.914321     0.000000    -0.014412   -57.928733
	   39 D(1,5,8,10)     =     57.979046    -0.000001    -0.080874    57.898172
	   40 D(1,5,8,11)     =    180.000000    -0.000000     0.000000   180.000000
	   41 D(2,1,5,6)      =     58.029167    -0.000000    -0.039025    57.990143
	   42 D(2,1,5,7)      =    -57.956663    -0.000001    -0.045900   -58.002562
	   43 D(2,1,5,8)      =    180.000000     0.000000     0.010860   180.010860
	   44 D(3,1,5,6)      =    178.060040     0.000000     0.003332   178.063373
	   45 D(3,1,5,7)      =     62.074210    -0.000000    -0.003543    62.070668
	   46 D(3,1,5,8)      =    -59.969127     0.000001     0.053217   -59.915910
	   47 D(4,1,5,6)      =    -62.046094    -0.000000    -0.019007   -62.065102
	   48 D(4,1,5,7)      =   -178.031924    -0.000000    -0.025882  -178.057807
	   49 D(4,1,5,8)      =     59.924738     0.000000     0.030877    59.955615
	   50 D(5,8,11,12)    =    180.000000    -0.000000    -0.010860   179.989140
	   51 D(5,8,11,13)    =    -59.924738    -0.000000    -0.030877   -59.955615
	   52 D(5,8,11,14)    =     59.969127    -0.000001    -0.053217    59.915910
	   53 D(6,5,8,9)      =     64.106633     0.000001     0.066462    64.173095
	   54 D(6,5,8,10)     =    180.000000    -0.000000     0.000000   180.000000
	   55 D(6,5,8,11)     =    -57.979046     0.000001     0.080874   -57.898172
	   56 D(7,5,8,9)      =    180.000000    -0.000000     0.000000   180.000000
	   57 D(7,5,8,10)     =    -64.106633    -0.000001    -0.066462   -64.173095
	   58 D(7,5,8,11)     =     57.914321    -0.000000     0.014412    57.928733
	   59 D(9,8,11,12)    =     57.956663     0.000001     0.045900    58.002562
	   60 D(9,8,11,13)    =    178.031924     0.000000     0.025882   178.057807
	   61 D(9,8,11,14)    =    -62.074210     0.000000     0.003543   -62.070668
	   62 D(10,8,11,12)   =    -58.029167     0.000000     0.039025   -57.990143
	   63 D(10,8,11,13)   =     62.046094     0.000000     0.019007    62.065102
	   64 D(10,8,11,14)   =   -178.060040    -0.000000    -0.003332  -178.063373
	 ---------------------------------------------------------------------------

  ==> Convergence Check <==

  Measures of convergence in internal coordinates in au.
  Criteria marked as inactive (o), active & met (*), and active & unmet ( ).
  --------------------------------------------------------------------------------------------- ~
   Step     Total Energy     Delta E     MAX Force     RMS Force      MAX Disp      RMS Disp    ~
  --------------------------------------------------------------------------------------------- ~
    Convergence Criteria    1.00e-06 *    3.00e-04 *             o    1.20e-03 *             o  ~
  --------------------------------------------------------------------------------------------- ~
      1    -157.29839642   -1.57e+02      2.69e-04 *    7.68e-05 o    1.41e-03      5.85e-04 o  ~
  ---------------------------------------------------------------------------------------------

	Writing optimization data to binary file.
	Structure for next step:
	Cartesian Geometry (in Angstrom)
	    C     1.9544213031   0.1320696705  -0.0000354277
	    H     2.7381724092  -0.6192428240   0.0002688754
	    H     2.0960336526   0.7573210463  -0.8771961007
	    H     2.0960118150   0.7577956655   0.8767248383
	    C     0.5684100063  -0.5117310826   0.0003387112
	    H     0.4698309743  -1.1569780056   0.8709131311
	    H     0.4698877624  -1.1575320472  -0.8697861167
	    C    -0.5684100063   0.5117310826  -0.0003387112
	    H    -0.4698877624   1.1575320472   0.8697861167
	    H    -0.4698309743   1.1569780056  -0.8709131311
	    C    -1.9544213031  -0.1320696705   0.0000354277
	    H    -2.7381724092   0.6192428240  -0.0002688754
	    H    -2.0960118150  -0.7577956655  -0.8767248383
	    H    -2.0960336526  -0.7573210463   0.8771961007
			--------------------------
			 OPTKING Finished Execution 
			--------------------------

    Structure for next step:
    Molecular point group: ci
    Full point group: Ci

    Geometry (in Angstrom), charge = 0, multiplicity = 1:

    C            1.954421303070     0.132069670463    -0.000035427701
    H            2.738172409189    -0.619242824042     0.000268875355
    H            2.096033652640     0.757321046331    -0.877196100685
    H            2.096011814991     0.757795665524     0.876724838301
    C            0.568410006299    -0.511731082605     0.000338711160
    H            0.469830974316    -1.156978005556     0.870913131088
    H            0.469887762372    -1.157532047195    -0.869786116687
    C           -0.568410006299     0.511731082605    -0.000338711160
    H           -0.469887762372     1.157532047195     0.869786116687
    H           -0.469830974316     1.156978005556    -0.870913131088
    C           -1.954421303070    -0.132069670463     0.000035427701
    H           -2.738172409189     0.619242824042    -0.000268875355
    H           -2.096011814991    -0.757795665524    -0.876724838301
    H           -2.096033652640    -0.757321046331     0.877196100685

gradient() will perform analytic gradient computation.

*** tstart() called on dakota
*** at Tue Mar 22 15:56:33 2016


         ---------------------------------------------------------
                                   SCF
            by Justin Turney, Rob Parrish, and Andy Simmonett
                              RHF Reference
                        8 Threads,  10000 MiB Core
         ---------------------------------------------------------

  ==> Geometry <==

    Molecular point group: ci
    Full point group: Ci

    Geometry (in Angstrom), charge = 0, multiplicity = 1:

       Center              X                  Y                   Z               Mass       
    ------------   -----------------  -----------------  -----------------  -----------------
           C          1.954421303070     0.132069670463    -0.000035427701    12.000000000000
           H          2.738172409189    -0.619242824042     0.000268875355     1.007825032070
           H          2.096033652640     0.757321046331    -0.877196100685     1.007825032070
           H          2.096011814991     0.757795665524     0.876724838301     1.007825032070
           C          0.568410006299    -0.511731082605     0.000338711160    12.000000000000
           H          0.469830974316    -1.156978005556     0.870913131088     1.007825032070
           H          0.469887762372    -1.157532047195    -0.869786116687     1.007825032070
           C         -0.568410006299     0.511731082605    -0.000338711160    12.000000000000
           H         -0.469887762372     1.157532047195     0.869786116687     1.007825032070
           H         -0.469830974316     1.156978005556    -0.870913131088     1.007825032070
           C         -1.954421303070    -0.132069670463     0.000035427701    12.000000000000
           H         -2.738172409189     0.619242824042    -0.000268875355     1.007825032070
           H         -2.096011814991    -0.757795665524    -0.876724838301     1.007825032070
           H         -2.096033652640    -0.757321046331     0.877196100685     1.007825032070

  Running in ci symmetry.

  Rotational constants: A =      0.78985  B =      0.12102  C =      0.11365 [cm^-1]
  Rotational constants: A =  23679.05931  B =   3628.10020  C =   3407.11396 [MHz]
  Nuclear repulsion =  130.841375644152379

  Charge       = 0
  Multiplicity = 1
  Electrons    = 34
  Nalpha       = 17
  Nbeta        = 17

  ==> Algorithm <==

  SCF Algorithm Type is DF.
  DIIS enabled.
  MOM disabled.
  Fractional occupation disabled.
  Guess Type is READ.
  Energy threshold   = 1.00e-08
  Density threshold  = 1.00e-08
  Integral threshold = 0.00e+00

  ==> Primary Basis <==

  Basis Set: 6-31G(D)
    Number of shells: 44
    Number of basis function: 80
    Number of Cartesian functions: 80
    Spherical Harmonics?: false
    Max angular momentum: 2

  ==> Pre-Iterations <==

   -------------------------------------------------------
    Irrep   Nso     Nmo     Nalpha   Nbeta   Ndocc  Nsocc
   -------------------------------------------------------
     Ag        40      40       0       0       0       0
     Au        40      40       0       0       0       0
   -------------------------------------------------------
    Total      80      80      17      17      17       0
   -------------------------------------------------------

  ==> Integral Setup <==

  ==> DFJK: Density-Fitted J/K Matrices <==

    J tasked:                  Yes
    K tasked:                  Yes
    wK tasked:                  No
    OpenMP threads:              8
    Integrals threads:           8
    Memory (MB):              7152
    Algorithm:                Core
    Integral Cache:           NONE
    Schwarz Cutoff:          1E-12
    Fitting Condition:       1E-12

   => Auxiliary Basis Set <=

  Basis Set: 
    Number of shells: 186
    Number of basis function: 574
    Number of Cartesian functions: 574
    Spherical Harmonics?: false
    Max angular momentum: 3

  Minimum eigenvalue in the overlap matrix is 4.6248271285E-03.
  Using Symmetric Orthogonalization.
  SCF Guess: Reading in previously saved MOs, projecting if necessary.

  Using orbitals from previous SCF, no projection.
  Recomputing DOCC and SOCC from number of alpha and beta electrons from previous calculation.
             Ag    Au 
    DOCC [     9,    8 ]

  ==> Iterations <==

                           Total Energy        Delta E     RMS |[F,P]|

   @DF-RHF iter   0:  -157.29856763379036   -1.57299e+02   2.83764e-05 
   @DF-RHF iter   1:  -157.29839726722724    1.70367e-04   4.01910e-06 
   @DF-RHF iter   2:  -157.29839729863937   -3.14121e-08   1.54187e-06 DIIS
   @DF-RHF iter   3:  -157.29839730249131   -3.85194e-09   3.74382e-07 DIIS
   @DF-RHF iter   4:  -157.29839730293179   -4.40480e-10   7.89769e-08 DIIS
   @DF-RHF iter   5:  -157.29839730295447   -2.26805e-11   1.93169e-08 DIIS
   @DF-RHF iter   6:  -157.29839730295549   -1.02318e-12   5.68910e-09 DIIS

  ==> Post-Iterations <==

    Orbital Energies (a.u.)
    -----------------------

    Doubly Occupied:                                                      

       1Ag   -11.213793     1Au   -11.213200     2Ag   -11.207372  
       2Au   -11.207369     3Ag    -1.069703     3Au    -0.981024  
       4Ag    -0.862387     4Au    -0.789522     5Au    -0.638635  
       5Ag    -0.584839     6Au    -0.574274     6Ag    -0.568601  
       7Au    -0.515435     8Au    -0.496407     7Ag    -0.468513  
       8Ag    -0.462257     9Ag    -0.455864  

    Virtual:                                                              

      10Ag     0.232817     9Au     0.262168    10Au     0.285389  
      11Au     0.294874    11Ag     0.321676    12Ag     0.336830  
      12Au     0.338106    13Ag     0.340780    13Au     0.353365  
      14Ag     0.353561    14Au     0.420471    15Ag     0.424637  
      15Au     0.442516    16Au     0.698114    16Ag     0.700515  
      17Ag     0.753295    17Au     0.754677    18Ag     0.758042  
      18Au     0.847377    19Au     0.866573    19Ag     0.931108  
      20Au     0.966468    21Au     1.027538    20Ag     1.062419  
      21Ag     1.112876    22Au     1.136689    22Ag     1.172912  
      23Au     1.189082    23Ag     1.192276    24Au     1.203733  
      24Ag     1.209910    25Ag     1.229126    25Au     1.235400  
      26Au     1.245255    26Ag     1.276940    27Ag     1.283759  
      27Au     1.615534    28Ag     1.696792    28Au     1.707205  
      29Au     1.740843    29Ag     1.912896    30Au     1.929783  
      30Ag     2.141944    31Au     2.189912    31Ag     2.223753  
      32Au     2.274338    32Ag     2.285370    33Au     2.337602  
      33Ag     2.387443    34Ag     2.501918    35Ag     2.607810  
      34Au     2.613381    35Au     2.649109    36Ag     2.744042  
      37Ag     2.752427    36Au     2.756398    37Au     2.900493  
      38Ag     3.033694    38Au     3.103778    39Ag     4.566694  
      39Au     4.675676    40Ag     4.794714    40Au     4.943651  

    Final Occupation by Irrep:
             Ag    Au 
    DOCC [     9,    8 ]

  Energy converged.

  @DF-RHF Final Energy:  -157.29839730295549

   => Energetics <=

    Nuclear Repulsion Energy =            130.8413756441523788
    One-Electron Energy =                -469.6611529309212756
    Two-Electron Energy =                 181.5213799838133752
    DFT Exchange-Correlation Energy =       0.0000000000000000
    Empirical Dispersion Energy =           0.0000000000000000
    PCM Polarization Energy =               0.0000000000000000
    EFP Energy =                            0.0000000000000000
    Total Energy =                       -157.2983973029555216

    Alert: EFP and PCM quantities not currently incorporated into SCF psivars.

Properties will be evaluated at   0.000000,   0.000000,   0.000000 Bohr
  ==> Properties <==


Properties computed using the SCF density matrix

  Nuclear Dipole Moment: (a.u.)
     X:     0.0000      Y:    -0.0000      Z:     0.0000

  Electronic Dipole Moment: (a.u.)
     X:     0.0000      Y:     0.0000      Z:     0.0000

  Dipole Moment: (a.u.)
     X:     0.0000      Y:    -0.0000      Z:     0.0000     Total:     0.0000

  Dipole Moment: (Debye)
     X:     0.0000      Y:    -0.0000      Z:     0.0000     Total:     0.0000


  Saving occupied orbitals to File 180.

*** tstop() called on dakota at Tue Mar 22 15:56:35 2016
Module time:
	user time   =       8.55 seconds =       0.14 minutes
	system time =       0.31 seconds =       0.01 minutes
	total time  =          2 seconds =       0.03 minutes
Total time:
	user time   =      26.90 seconds =       0.45 minutes
	system time =       0.91 seconds =       0.02 minutes
	total time  =          5 seconds =       0.08 minutes

*** tstart() called on dakota
*** at Tue Mar 22 15:56:35 2016


         ------------------------------------------------------------
                                   SCF GRAD                          
                          Rob Parrish, Justin Turney,                
                       Andy Simmonett, and Alex Sokolov              
         ------------------------------------------------------------

  ==> Geometry <==

    Molecular point group: ci
    Full point group: Ci

    Geometry (in Angstrom), charge = 0, multiplicity = 1:

       Center              X                  Y                   Z               Mass       
    ------------   -----------------  -----------------  -----------------  -----------------
           C          1.954421303070     0.132069670463    -0.000035427701    12.000000000000
           H          2.738172409189    -0.619242824042     0.000268875355     1.007825032070
           H          2.096033652640     0.757321046331    -0.877196100685     1.007825032070
           H          2.096011814991     0.757795665524     0.876724838301     1.007825032070
           C          0.568410006299    -0.511731082605     0.000338711160    12.000000000000
           H          0.469830974316    -1.156978005556     0.870913131088     1.007825032070
           H          0.469887762372    -1.157532047195    -0.869786116687     1.007825032070
           C         -0.568410006299     0.511731082605    -0.000338711160    12.000000000000
           H         -0.469887762372     1.157532047195     0.869786116687     1.007825032070
           H         -0.469830974316     1.156978005556    -0.870913131088     1.007825032070
           C         -1.954421303070    -0.132069670463     0.000035427701    12.000000000000
           H         -2.738172409189     0.619242824042    -0.000268875355     1.007825032070
           H         -2.096011814991    -0.757795665524    -0.876724838301     1.007825032070
           H         -2.096033652640    -0.757321046331     0.877196100685     1.007825032070

  Nuclear repulsion =  130.841375644152379

  ==> Basis Set <==

  Basis Set: 6-31G(D)
    Number of shells: 44
    Number of basis function: 80
    Number of Cartesian functions: 80
    Spherical Harmonics?: false
    Max angular momentum: 2

  ==> DFJKGrad: Density-Fitted SCF Gradients <==

    Gradient:                    1
    J tasked:                  Yes
    K tasked:                  Yes
    wK tasked:                  No
    OpenMP threads:              8
    Integrals threads:           8
    Memory (MB):              7152
    Schwarz Cutoff:          0E+00
    Fitting Condition:       1E-12

   => Auxiliary Basis Set <=

  Basis Set: 
    Number of shells: 186
    Number of basis function: 574
    Number of Cartesian functions: 574
    Spherical Harmonics?: false
    Max angular momentum: 3


  -Total Gradient:
     Atom            X                  Y                   Z
    ------   -----------------  -----------------  -----------------
       1        0.000018326575    -0.000012716229    -0.000017976362
       2        0.000026841937    -0.000002932718     0.000008782194
       3        0.000009559878     0.000021289255    -0.000012212858
       4       -0.000010324246    -0.000017723965    -0.000012629830
       5       -0.000034982796     0.000038658917     0.000075058540
       6       -0.000001908428    -0.000010371527    -0.000007169844
       7       -0.000004426012     0.000039912307     0.000018313052
       8        0.000034982796    -0.000038658917    -0.000075058540
       9        0.000004426012    -0.000039912307    -0.000018313052
      10        0.000001908428     0.000010371527     0.000007169844
      11       -0.000018326575     0.000012716229     0.000017976362
      12       -0.000026841937     0.000002932718    -0.000008782194
      13        0.000010324246     0.000017723965     0.000012629830
      14       -0.000009559878    -0.000021289255     0.000012212858


*** tstop() called on dakota at Tue Mar 22 15:56:36 2016
Module time:
	user time   =       9.67 seconds =       0.16 minutes
	system time =       0.35 seconds =       0.01 minutes
	total time  =          1 seconds =       0.02 minutes
Total time:
	user time   =      36.58 seconds =       0.61 minutes
	system time =       1.27 seconds =       0.02 minutes
	total time  =          6 seconds =       0.10 minutes

			-----------------------------------------
			 OPTKING 2.0: for geometry optimizations 
			  - R.A. King,  Bethel University        
			-----------------------------------------

	Previous internal coordinate definitions found.
	---Fragment 1 Geometry and Gradient---
	 C           3.6933210111        0.2495755076       -0.0000669487
	 H           5.1743959580       -1.1701993472        0.0005081008
	 H           3.9609295688        1.4311293722       -1.6576603951
	 H           3.9608883016        1.4320262725        1.6567698383
	 C           1.0741392431       -0.9670315998        0.0006400713
	 H           0.8878518702       -2.1863715723        1.6457873033
	 H           0.8879591841       -2.1874185592       -1.6436575547
	 C          -1.0741392431        0.9670315998       -0.0006400713
	 H          -0.8879591841        2.1874185592        1.6436575547
	 H          -0.8878518702        2.1863715723       -1.6457873033
	 C          -3.6933210111       -0.2495755076        0.0000669487
	 H          -5.1743959580        1.1701993472       -0.0005081008
	 H          -3.9608883016       -1.4320262725       -1.6567698383
	 H          -3.9609295688       -1.4311293722        1.6576603951
	             0.0000183266       -0.0000127162       -0.0000179764
	             0.0000268419       -0.0000029327        0.0000087822
	             0.0000095599        0.0000212893       -0.0000122129
	            -0.0000103242       -0.0000177240       -0.0000126298
	            -0.0000349828        0.0000386589        0.0000750585
	            -0.0000019084       -0.0000103715       -0.0000071698
	            -0.0000044260        0.0000399123        0.0000183131
	             0.0000349828       -0.0000386589       -0.0000750585
	             0.0000044260       -0.0000399123       -0.0000183131
	             0.0000019084        0.0000103715        0.0000071698
	            -0.0000183266        0.0000127162        0.0000179764
	            -0.0000268419        0.0000029327       -0.0000087822
	             0.0000103242        0.0000177240        0.0000126298
	            -0.0000095599       -0.0000212893        0.0000122129

	---Fragment 1 Intrafragment Coordinates---
	 - Coordinate -           - BOHR/RAD -       - ANG/DEG -
	 R(1,2)           =         2.051669	       1.085696
	 R(1,3)           =         2.053120	       1.086464
	 R(1,4)           =         2.053020	       1.086411
	 R(1,5)           =         2.887948	       1.528237
	 R(5,6)           =         2.056211	       1.088100
	 R(5,7)           =         2.056143	       1.088064
	 R(5,8)           =         2.890623	       1.529652
	 R(8,9)           =         2.056143	       1.088064
	 R(8,10)          =         2.056211	       1.088100
	 R(8,11)          =         2.887948	       1.528237
	 R(11,12)         =         2.051669	       1.085696
	 R(11,13)         =         2.053020	       1.086411
	 R(11,14)         =         2.053120	       1.086464
	 B(1,5,6)         =         1.909407	     109.400941
	 B(1,5,7)         =         1.909180	     109.387974
	 B(1,5,8)         =         1.973774	     113.088935
	 B(2,1,3)         =         1.880084	     107.720854
	 B(2,1,4)         =         1.879957	     107.713584
	 B(2,1,5)         =         1.942477	     111.295758
	 B(3,1,4)         =         1.878749	     107.644376
	 B(3,1,5)         =         1.939973	     111.152252
	 B(4,1,5)         =         1.939746	     111.139235
	 B(5,8,9)         =         1.906542	     109.236794
	 B(5,8,10)        =         1.906879	     109.256097
	 B(5,8,11)        =         1.973774	     113.088935
	 B(6,5,7)         =         1.854236	     106.239887
	 B(6,5,8)         =         1.906879	     109.256097
	 B(7,5,8)         =         1.906542	     109.236794
	 B(8,11,12)       =         1.942477	     111.295758
	 B(8,11,13)       =         1.939746	     111.139235
	 B(8,11,14)       =         1.939973	     111.152252
	 B(9,8,10)        =         1.854236	     106.239887
	 B(9,8,11)        =         1.909180	     109.387974
	 B(10,8,11)       =         1.909407	     109.400941
	 B(12,11,13)      =         1.879957	     107.713584
	 B(12,11,14)      =         1.880084	     107.720854
	 B(13,11,14)      =         1.878749	     107.644376
	 D(1,5,8,9)       =        -1.011047	     -57.928733
	 D(1,5,8,10)      =         1.010514	      57.898172
	 D(1,5,8,11)      =         3.141593	     180.000000
	 D(2,1,5,6)       =         1.012119	      57.990143
	 D(2,1,5,7)       =        -1.012336	     -58.002562
	 D(2,1,5,8)       =        -3.141403	    -179.989140
	 D(3,1,5,6)       =         3.107792	     178.063373
	 D(3,1,5,7)       =         1.083338	      62.070668
	 D(3,1,5,8)       =        -1.045730	     -59.915910
	 D(4,1,5,6)       =        -1.083240	     -62.065102
	 D(4,1,5,7)       =        -3.107695	    -178.057807
	 D(4,1,5,8)       =         1.046423	      59.955615
	 D(5,8,11,12)     =         3.141403	     179.989140
	 D(5,8,11,13)     =        -1.046423	     -59.955615
	 D(5,8,11,14)     =         1.045730	      59.915910
	 D(6,5,8,9)       =         1.120032	      64.173095
	 D(6,5,8,10)      =         3.141593	     180.000000
	 D(6,5,8,11)      =        -1.010514	     -57.898172
	 D(7,5,8,9)       =         3.141593	     180.000000
	 D(7,5,8,10)      =        -1.120032	     -64.173095
	 D(7,5,8,11)      =         1.011047	      57.928733
	 D(9,8,11,12)     =         1.012336	      58.002562
	 D(9,8,11,13)     =         3.107695	     178.057807
	 D(9,8,11,14)     =        -1.083338	     -62.070668
	 D(10,8,11,12)    =        -1.012119	     -57.990143
	 D(10,8,11,13)    =         1.083240	      62.065102
	 D(10,8,11,14)    =        -3.107792	    -178.063373

	Current energy   :      -157.2983973030

	Energy change for the previous step:
		Projected    :        -0.0000010586
		Actual       :        -0.0000008823
	Energy ratio indicates good step: Trust radius increased to 1.000e+00.


	Performing BFGS update.
	Previous computed or guess Hessian on step 1.
	Steps to be used in Hessian update: 1
	Taking RFO optimization step.
	Going to follow RFO solution 1.
	Using RFO vector 1.
	Norm of target step-size    0.00194
	Projected energy change by RFO approximation:         0.0000002870

	Back-transformation to cartesian coordinates...
	Could not converge backtransformation.
	Using first guess instead.

	--- Internal Coordinate Step in ANG or DEG, aJ/ANG or AJ/DEG ---
	 ---------------------------------------------------------------------------
	   Coordinate                Previous        Force       Change         New 
	   ----------                --------       ------       ------       ------
	    1 R(1,2)          =      1.085696    -0.000176    -0.000026     1.085670
	    2 R(1,3)          =      1.086464    -0.000192    -0.000021     1.086443
	    3 R(1,4)          =      1.086411     0.000179     0.000011     1.086422
	    4 R(1,5)          =      1.528237    -0.000290    -0.000058     1.528178
	    5 R(5,6)          =      1.088100    -0.000005    -0.000007     1.088093
	    6 R(5,7)          =      1.088064     0.000313     0.000051     1.088115
	    7 R(5,8)          =      1.529652     0.000290     0.000066     1.529718
	    8 R(8,9)          =      1.088064     0.000313     0.000051     1.088115
	    9 R(8,10)         =      1.088100    -0.000005    -0.000007     1.088093
	   10 R(8,11)         =      1.528237    -0.000290    -0.000058     1.528178
	   11 R(11,12)        =      1.085696    -0.000176    -0.000026     1.085670
	   12 R(11,13)        =      1.086411     0.000179     0.000011     1.086422
	   13 R(11,14)        =      1.086464    -0.000192    -0.000021     1.086443
	   14 B(1,5,6)        =    109.400941     0.000000    -0.006829   109.394111
	   15 B(1,5,7)        =    109.387974     0.000001     0.010330   109.398304
	   16 B(1,5,8)        =    113.088935    -0.000003    -0.007740   113.081196
	   17 B(2,1,3)        =    107.720854     0.000001    -0.000082   107.720773
	   18 B(2,1,4)        =    107.713584     0.000000     0.005368   107.718952
	   19 B(2,1,5)        =    111.295758    -0.000002    -0.009716   111.286042
	   20 B(3,1,4)        =    107.644376     0.000000     0.002831   107.647206
	   21 B(3,1,5)        =    111.152252    -0.000001    -0.006562   111.145690
	   22 B(4,1,5)        =    111.139235     0.000002     0.008646   111.147881
	   23 B(5,8,9)        =    109.236794     0.000002     0.014755   109.251549
	   24 B(5,8,10)       =    109.256097     0.000000    -0.009246   109.246851
	   25 B(5,8,11)       =    113.088935    -0.000003    -0.007740   113.081196
	   26 B(6,5,7)        =    106.239887    -0.000001    -0.000847   106.239040
	   27 B(6,5,8)        =    109.256097     0.000000    -0.009246   109.246851
	   28 B(7,5,8)        =    109.236794     0.000002     0.014755   109.251549
	   29 B(8,11,12)      =    111.295758    -0.000002    -0.009716   111.286042
	   30 B(8,11,13)      =    111.139235     0.000002     0.008646   111.147881
	   31 B(8,11,14)      =    111.152252    -0.000001    -0.006562   111.145690
	   32 B(9,8,10)       =    106.239887    -0.000001    -0.000847   106.239040
	   33 B(9,8,11)       =    109.387974     0.000001     0.010330   109.398304
	   34 B(10,8,11)      =    109.400941     0.000000    -0.006829   109.394111
	   35 B(12,11,13)     =    107.713584     0.000000     0.005368   107.718952
	   36 B(12,11,14)     =    107.720854     0.000001    -0.000082   107.720773
	   37 B(13,11,14)     =    107.644376     0.000000     0.002831   107.647206
	   38 D(1,5,8,9)      =    -57.928733     0.000000     0.018636   -57.910097
	   39 D(1,5,8,10)     =     57.898172     0.000000     0.020691    57.918863
	   40 D(1,5,8,11)     =    180.000000     0.000000     0.000000   180.000000
	   41 D(2,1,5,6)      =     57.990143     0.000000    -0.005969    57.984173
	   42 D(2,1,5,7)      =    -58.002562     0.000000    -0.006925   -58.009488
	   43 D(2,1,5,8)      =   -179.989140    -0.000000    -0.028045  -180.017186
	   44 D(3,1,5,6)      =    178.063373    -0.000000    -0.017032   178.046340
	   45 D(3,1,5,7)      =     62.070668    -0.000000    -0.017988    62.052680
	   46 D(3,1,5,8)      =    -59.915910    -0.000000    -0.039108   -59.955018
	   47 D(4,1,5,6)      =    -62.065102     0.000000    -0.012063   -62.077164
	   48 D(4,1,5,7)      =   -178.057807     0.000000    -0.013019  -178.070825
	   49 D(4,1,5,8)      =     59.955615    -0.000000    -0.034139    59.921477
	   50 D(5,8,11,12)    =    179.989140     0.000000     0.028045   180.017186
	   51 D(5,8,11,13)    =    -59.955615     0.000000     0.034139   -59.921477
	   52 D(5,8,11,14)    =     59.915910     0.000000     0.039108    59.955018
	   53 D(6,5,8,9)      =     64.173095    -0.000000    -0.002055    64.171040
	   54 D(6,5,8,10)     =    180.000000    -0.000000     0.000000   180.000000
	   55 D(6,5,8,11)     =    -57.898172    -0.000000    -0.020691   -57.918863
	   56 D(7,5,8,9)      =    180.000000     0.000000     0.000000   180.000000
	   57 D(7,5,8,10)     =    -64.173095     0.000000     0.002055   -64.171040
	   58 D(7,5,8,11)     =     57.928733    -0.000000    -0.018636    57.910097
	   59 D(9,8,11,12)    =     58.002562    -0.000000     0.006925    58.009488
	   60 D(9,8,11,13)    =    178.057807    -0.000000     0.013019   178.070825
	   61 D(9,8,11,14)    =    -62.070668     0.000000     0.017988   -62.052680
	   62 D(10,8,11,12)   =    -57.990143    -0.000000     0.005969   -57.984173
	   63 D(10,8,11,13)   =     62.065102    -0.000000     0.012063    62.077164
	   64 D(10,8,11,14)   =   -178.063373     0.000000     0.017032  -178.046340
	 ---------------------------------------------------------------------------

  ==> Convergence Check <==

  Measures of convergence in internal coordinates in au.
  Criteria marked as inactive (o), active & met (*), and active & unmet ( ).
  ---------------------------------------------------------------------------------------------
   Step     Total Energy     Delta E     MAX Force     RMS Force      MAX Disp      RMS Disp   
  ---------------------------------------------------------------------------------------------
    Convergence Criteria    1.00e-06 *    3.00e-04 *             o    1.20e-03 *             o
  ---------------------------------------------------------------------------------------------
      2    -157.29839730   -8.82e-07 *    3.97e-05 *    1.79e-05 o    6.83e-04 *    2.42e-04 o  ~
  ---------------------------------------------------------------------------------------------


  **** Optimization is complete! (in 2 steps) ****

  ==> Optimization Summary <==

  Measures of convergence in internal coordinates in au.
  --------------------------------------------------------------------------------------------------------------- ~
   Step         Total Energy             Delta E       MAX Force       RMS Force        MAX Disp        RMS Disp  ~
  --------------------------------------------------------------------------------------------------------------- ~
      1    -157.298396420624   -157.298396420624      0.00026913      0.00007682      0.00141151      0.00058544  ~
      2    -157.298397302955     -0.000000882331      0.00003966      0.00001786      0.00068257      0.00024199  ~
  --------------------------------------------------------------------------------------------------------------- ~

	Writing optimization data to binary file.
	Final energy is   -157.2983973029555
	Final (previous) structure:
	Cartesian Geometry (in Angstrom)
	    C     1.9544213031   0.1320696705  -0.0000354277
	    H     2.7381724092  -0.6192428240   0.0002688754
	    H     2.0960336526   0.7573210463  -0.8771961007
	    H     2.0960118150   0.7577956655   0.8767248383
	    C     0.5684100063  -0.5117310826   0.0003387112
	    H     0.4698309743  -1.1569780056   0.8709131311
	    H     0.4698877624  -1.1575320472  -0.8697861167
	    C    -0.5684100063   0.5117310826  -0.0003387112
	    H    -0.4698877624   1.1575320472   0.8697861167
	    H    -0.4698309743   1.1569780056  -0.8709131311
	    C    -1.9544213031  -0.1320696705   0.0000354277
	    H    -2.7381724092   0.6192428240  -0.0002688754
	    H    -2.0960118150  -0.7577956655  -0.8767248383
	    H    -2.0960336526  -0.7573210463   0.8771961007
	Saving final (previous) structure.
			--------------------------
			 OPTKING Finished Execution 
			--------------------------

    Final optimized geometry and variables:
    Molecular point group: ci
    Full point group: Ci

    Geometry (in Angstrom), charge = 0, multiplicity = 1:

    C            1.954421303070     0.132069670463    -0.000035427701
    H            2.738172409189    -0.619242824042     0.000268875355
    H            2.096033652640     0.757321046331    -0.877196100685
    H            2.096011814991     0.757795665524     0.876724838301
    C            0.568410006299    -0.511731082605     0.000338711160
    H            0.469830974316    -1.156978005556     0.870913131088
    H            0.469887762372    -1.157532047195    -0.869786116687
    C           -0.568410006299     0.511731082605    -0.000338711160
    H           -0.469887762372     1.157532047195     0.869786116687
    H           -0.469830974316     1.156978005556    -0.870913131088
    C           -1.954421303070    -0.132069670463     0.000035427701
    H           -2.738172409189     0.619242824042    -0.000268875355
    H           -2.096011814991    -0.757795665524    -0.876724838301
    H           -2.096033652640    -0.757321046331     0.877196100685

	Cleaning optimization helper files.

*** PSI4 exiting successfully. Buy a developer a beer!
