    -----------------------------------------------------------------------
          Psi4: An Open-Source Ab Initio Electronic Structure Package
                              Psi4 1.0.0 Driver

                          Git: Rev {master} 6a9a71b dirty

    J. M. Turney, A. C. Simmonett, R. M. Parrish, E. G. Hohenstein,
    F. A. Evangelista, J. T. Fermann, B. J. Mintz, L. A. Burns, J. J. Wilke,
    M. L. Abrams, N. J. Russ, M. L. Leininger, C. L. Janssen, E. T. Seidl,
    W. D. Allen, H. F. Schaefer, R. A. King, E. F. Valeev, C. D. Sherrill,
    and T. D. Crawford, WIREs Comput. Mol. Sci. 2, 556-565 (2012)
    (doi: 10.1002/wcms.93)

                         Additional Contributions by
    A. E. DePrince, U. Bozkaya, A. Yu. Sokolov, D. G. A. Smith, R. Di Remigio,
    R. M. Richard, J. F. Gonthier, H. R. McAlexander, M. Saitow, and
    B. P. Pritchard
    -----------------------------------------------------------------------


    Psi4 started on: Sun Sep 25 08:53:06 2016

    Process ID:  26894
    PSI4DATADIR: /usr/local/hpc5/psi4conda/share/psi4
    Memory level set to 256.000 MB

  ==> Input File <==

--------------------------------------------------------------------------
memory 40 Gb

molecule molecule_03_psi {
0 1
    C            4.063921132264     0.348810712879     0.149748259052
    H            4.825352597827     0.820399173995    -0.470960789777
    H            4.380258166229    -0.675928658625     0.348324707907
    H            4.033944327871     0.877153050207     1.103465063640
    C           -2.911530778231     1.336583489365     0.518655029557
    H           -3.404840181057     2.243280301789     0.169328848589
    H           -1.941277105128     1.624261901672     0.923742950458
    H           -3.504705445692     0.926027654081     1.337689004489
    C            2.696537355539     0.370634917796    -0.522132190434
    H            2.750298814736    -0.141917989350    -1.486299746053
    H            2.406208877040     1.402747584484    -0.735859352329
    C           -2.767645292327     0.318742570880    -0.607158659230
    H           -3.745724507554     0.138465505260    -1.058581144040
    H           -2.139499806131     0.733473796952    -1.398415656637
    C            1.617846684498    -0.284236029051     0.331227013292
    H            1.560293896398     0.229775295576     1.296400553821
    H            1.906989559398    -1.317489244337     0.548803020444
    C            0.243850380316    -0.272738389719    -0.326450027879
    H            0.295718892236    -0.798992194563    -1.285709963663
    H           -0.029889099574     0.761211245504    -0.555292650798
    C           -0.829717949393    -0.915540517316     0.543475102154
    H           -0.500932629682    -1.919945671081     0.825253169967
    H           -0.919105499147    -0.353263234020     1.477011252100
    C           -2.193858626448    -1.017857464264    -0.137571992047
    H           -2.110359457272    -1.691220443318    -0.995460338588
    H           -2.903075612424    -1.481600231325     0.554372761250
}

set globals {
  reference rhf
  basis aug-cc-pvtz
  scf_type df
  mp_type df
  freeze_core true
}
energy('mp2.5')
--------------------------------------------------------------------------
/usr/local/hpc5/psi4conda/lib/python2.7/site-packages/v2rdm_casscf/v2rdm_casscf.so loaded.

  Memory set to  40.000 GiB by Python script.

*** tstart() called on wr42
*** at Sun Sep 25 08:53:07 2016


         ---------------------------------------------------------
                                   SCF
            by Justin Turney, Rob Parrish, and Andy Simmonett
                              RHF Reference
                       12 Threads,  40000 MiB Core
         ---------------------------------------------------------

  ==> Geometry <==

    Molecular point group: c1
    Full point group: C1

    Geometry (in Angstrom), charge = 0, multiplicity = 1:

       Center              X                  Y                   Z               Mass       
    ------------   -----------------  -----------------  -----------------  -----------------
           C          4.063921132264     0.348810712879     0.149748259052    12.000000000000
           H          4.825352597827     0.820399173995    -0.470960789777     1.007825032070
           H          4.380258166229    -0.675928658625     0.348324707907     1.007825032070
           H          4.033944327871     0.877153050207     1.103465063640     1.007825032070
           C         -2.911530778231     1.336583489365     0.518655029557    12.000000000000
           H         -3.404840181057     2.243280301789     0.169328848589     1.007825032070
           H         -1.941277105128     1.624261901672     0.923742950458     1.007825032070
           H         -3.504705445692     0.926027654081     1.337689004489     1.007825032070
           C          2.696537355539     0.370634917796    -0.522132190434    12.000000000000
           H          2.750298814736    -0.141917989350    -1.486299746053     1.007825032070
           H          2.406208877040     1.402747584484    -0.735859352329     1.007825032070
           C         -2.767645292327     0.318742570880    -0.607158659230    12.000000000000
           H         -3.745724507554     0.138465505260    -1.058581144040     1.007825032070
           H         -2.139499806131     0.733473796952    -1.398415656637     1.007825032070
           C          1.617846684498    -0.284236029051     0.331227013292    12.000000000000
           H          1.560293896398     0.229775295576     1.296400553821     1.007825032070
           H          1.906989559398    -1.317489244337     0.548803020444     1.007825032070
           C          0.243850380316    -0.272738389719    -0.326450027879    12.000000000000
           H          0.295718892236    -0.798992194563    -1.285709963663     1.007825032070
           H         -0.029889099574     0.761211245504    -0.555292650798     1.007825032070
           C         -0.829717949393    -0.915540517316     0.543475102154    12.000000000000
           H         -0.500932629682    -1.919945671081     0.825253169967     1.007825032070
           H         -0.919105499147    -0.353263234020     1.477011252100     1.007825032070
           C         -2.193858626448    -1.017857464264    -0.137571992047    12.000000000000
           H         -2.110359457272    -1.691220443318    -0.995460338588     1.007825032070
           H         -2.903075612424    -1.481600231325     0.554372761250     1.007825032070

  Running in c1 symmetry.

  Rotational constants: A =      0.15189  B =      0.02240  C =      0.02129 [cm^-1]
  Rotational constants: A =   4553.40933  B =    671.46139  C =    638.11515 [MHz]
  Nuclear repulsion =  389.252681455320783

  Charge       = 0
  Multiplicity = 1
  Electrons    = 66
  Nalpha       = 33
  Nbeta        = 33

  ==> Algorithm <==

  SCF Algorithm Type is DF.
  DIIS enabled.
  MOM disabled.
  Fractional occupation disabled.
  Guess Type is SAD.
  Energy threshold   = 1.00e-08
  Density threshold  = 1.00e-08
  Integral threshold = 0.00e+00

  ==> Primary Basis <==

  Basis Set: AUG-CC-PVTZ
    Number of shells: 274
    Number of basis function: 782
    Number of Cartesian functions: 890
    Spherical Harmonics?: true
    Max angular momentum: 3

  ==> Pre-Iterations <==

   -------------------------------------------------------
    Irrep   Nso     Nmo     Nalpha   Nbeta   Ndocc  Nsocc
   -------------------------------------------------------
     A        782     782       0       0       0       0
   -------------------------------------------------------
    Total     782     782      33      33      33       0
   -------------------------------------------------------

  ==> Integral Setup <==

  ==> DFJK: Density-Fitted J/K Matrices <==

    J tasked:                  Yes
    K tasked:                  Yes
    wK tasked:                  No
    OpenMP threads:             12
    Integrals threads:          12
    Memory (MB):             28610
    Algorithm:                Core
    Integral Cache:           SAVE
    Schwarz Cutoff:          1E-12
    Fitting Condition:       1E-12

   => Auxiliary Basis Set <=

  Basis Set: 
    Number of shells: 492
    Number of basis function: 1660
    Number of Cartesian functions: 2038
    Spherical Harmonics?: true
    Max angular momentum: 4

  Minimum eigenvalue in the overlap matrix is 2.6339156884E-06.
  Using Symmetric Orthogonalization.
  SCF Guess: Superposition of Atomic Densities via on-the-fly atomic UHF.

  ==> Iterations <==

                           Total Energy        Delta E     RMS |[F,P]|

   @DF-RHF iter   0:  -316.74557503867965   -3.16746e+02   6.89210e-03 
   @DF-RHF iter   1:  -313.26428717866514    3.48129e+00   8.02751e-04 
   @DF-RHF iter   2:  -313.50271822091355   -2.38431e-01   3.13183e-04 DIIS
   @DF-RHF iter   3:  -313.53833448164295   -3.56163e-02   9.94073e-05 DIIS
   @DF-RHF iter   4:  -313.54371254737720   -5.37807e-03   1.54521e-05 DIIS
   @DF-RHF iter   5:  -313.54387914293517   -1.66596e-04   4.71708e-06 DIIS
   @DF-RHF iter   6:  -313.54389152407765   -1.23811e-05   1.38536e-06 DIIS
   @DF-RHF iter   7:  -313.54389272297664   -1.19890e-06   2.68293e-07 DIIS
   @DF-RHF iter   8:  -313.54389277385866   -5.08820e-08   7.99307e-08 DIIS
   @DF-RHF iter   9:  -313.54389277749880   -3.64014e-09   2.00282e-08 DIIS
   @DF-RHF iter  10:  -313.54389277778017   -2.81375e-10   5.28125e-09 DIIS

  ==> Post-Iterations <==

    Orbital Energies (a.u.)
    -----------------------

    Doubly Occupied:                                                      

       1A    -11.212553     2A    -11.211965     3A    -11.210623  
       4A    -11.210299     5A    -11.209705     6A    -11.209130  
       7A    -11.207119     8A    -11.206958     9A     -1.094429  
      10A     -1.061542    11A     -1.008364    12A     -0.948665  
      13A     -0.883038    14A     -0.828688    15A     -0.788214  
      16A     -0.755966    17A     -0.653984    18A     -0.627095  
      19A     -0.619675    20A     -0.582206    21A     -0.573408  
      22A     -0.568024    23A     -0.537083    24A     -0.527660  
      25A     -0.520471    26A     -0.504008    27A     -0.483706  
      28A     -0.473739    29A     -0.468982    30A     -0.460195  
      31A     -0.450574    32A     -0.443790    33A     -0.430822  

    Virtual:                                                              

      34A      0.029599    35A      0.031967    36A      0.034061  
      37A      0.035298    38A      0.045914    39A      0.047302  
      40A      0.048086    41A      0.053969    42A      0.057752  
      43A      0.066873    44A      0.067250    45A      0.069432  
      46A      0.070737    47A      0.084860    48A      0.089521  
      49A      0.092565    50A      0.097199    51A      0.103897  
      52A      0.106852    53A      0.112769    54A      0.114809  
      55A      0.123284    56A      0.124930    57A      0.127896  
      58A      0.132733    59A      0.133462    60A      0.141603  
      61A      0.143655    62A      0.150097    63A      0.154133  
      64A      0.159477    65A      0.162018    66A      0.163230  
      67A      0.164873    68A      0.169297    69A      0.171035  
      70A      0.175176    71A      0.182051    72A      0.187929  
      73A      0.192513    74A      0.193129    75A      0.199333  
      76A      0.207446    77A      0.220549    78A      0.222207  
      79A      0.225321    80A      0.238232    81A      0.242587  
      82A      0.248936    83A      0.252655    84A      0.254565  
      85A      0.261451    86A      0.268362    87A      0.272991  
      88A      0.278628    89A      0.282525    90A      0.287579  
      91A      0.297752    92A      0.300936    93A      0.305736  
      94A      0.306511    95A      0.315450    96A      0.318730  
      97A      0.320986    98A      0.325494    99A      0.330164  
     100A      0.337301   101A      0.338559   102A      0.342649  
     103A      0.350346   104A      0.353495   105A      0.356244  
     106A      0.358316   107A      0.363322   108A      0.364039  
     109A      0.365992   110A      0.370398   111A      0.376715  
     112A      0.382331   113A      0.386299   114A      0.387488  
     115A      0.392230   116A      0.398387   117A      0.400897  
     118A      0.405008   119A      0.406340   120A      0.408086  
     121A      0.411709   122A      0.413482   123A      0.420999  
     124A      0.424338   125A      0.429433   126A      0.431190  
     127A      0.436742   128A      0.439710   129A      0.443578  
     130A      0.444766   131A      0.453878   132A      0.457681  
     133A      0.459820   134A      0.462136   135A      0.467510  
     136A      0.471332   137A      0.473106   138A      0.477494  
     139A      0.479602   140A      0.480880   141A      0.487943  
     142A      0.491982   143A      0.495316   144A      0.505518  
     145A      0.506785   146A      0.509284   147A      0.513340  
     148A      0.515676   149A      0.519621   150A      0.521316  
     151A      0.526786   152A      0.531460   153A      0.533885  
     154A      0.538515   155A      0.538856   156A      0.545241  
     157A      0.550233   158A      0.551934   159A      0.560572  
     160A      0.568131   161A      0.569059   162A      0.571742  
     163A      0.574323   164A      0.581211   165A      0.586864  
     166A      0.589379   167A      0.593425   168A      0.599249  
     169A      0.600418   170A      0.606295   171A      0.611748  
     172A      0.620810   173A      0.624352   174A      0.627299  
     175A      0.636804   176A      0.639884   177A      0.650865  
     178A      0.654741   179A      0.657566   180A      0.660216  
     181A      0.665306   182A      0.669632   183A      0.673383  
     184A      0.679725   185A      0.686571   186A      0.693941  
     187A      0.699330   188A      0.701537   189A      0.715235  
     190A      0.719704   191A      0.724136   192A      0.729710  
     193A      0.736603   194A      0.741285   195A      0.748599  
     196A      0.758012   197A      0.770098   198A      0.773153  
     199A      0.781281   200A      0.783606   201A      0.794808  
     202A      0.806478   203A      0.812214   204A      0.824197  
     205A      0.829630   206A      0.835214   207A      0.842586  
     208A      0.845577   209A      0.852128   210A      0.858487  
     211A      0.861020   212A      0.871201   213A      0.876750  
     214A      0.877964   215A      0.886028   216A      0.889052  
     217A      0.892398   218A      0.901674   219A      0.904805  
     220A      0.908283   221A      0.909613   222A      0.920806  
     223A      0.923853   224A      0.928987   225A      0.933818  
     226A      0.935282   227A      0.938842   228A      0.944878  
     229A      0.948421   230A      0.950480   231A      0.955259  
     232A      0.961314   233A      0.968217   234A      0.975524  
     235A      0.977608   236A      0.979641   237A      0.983972  
     238A      0.991581   239A      0.996557   240A      1.002767  
     241A      1.007626   242A      1.014551   243A      1.022692  
     244A      1.024750   245A      1.027087   246A      1.035209  
     247A      1.039104   248A      1.045500   249A      1.053039  
     250A      1.057402   251A      1.062511   252A      1.064432  
     253A      1.070514   254A      1.075930   255A      1.080796  
     256A      1.086552   257A      1.095526   258A      1.101725  
     259A      1.106246   260A      1.112776   261A      1.119597  
     262A      1.128783   263A      1.132466   264A      1.134299  
     265A      1.140893   266A      1.146165   267A      1.155060  
     268A      1.155478   269A      1.158570   270A      1.166003  
     271A      1.174934   272A      1.176493   273A      1.180453  
     274A      1.188803   275A      1.193531   276A      1.193797  
     277A      1.198218   278A      1.200793   279A      1.206248  
     280A      1.211142   281A      1.218784   282A      1.222661  
     283A      1.225918   284A      1.238280   285A      1.240039  
     286A      1.245263   287A      1.246777   288A      1.253934  
     289A      1.258088   290A      1.265123   291A      1.266969  
     292A      1.269976   293A      1.277132   294A      1.284464  
     295A      1.295631   296A      1.303466   297A      1.304858  
     298A      1.305640   299A      1.310895   300A      1.323416  
     301A      1.326929   302A      1.335538   303A      1.339183  
     304A      1.344448   305A      1.349792   306A      1.356386  
     307A      1.364647   308A      1.374674   309A      1.379306  
     310A      1.382422   311A      1.395140   312A      1.404068  
     313A      1.414839   314A      1.417865   315A      1.423637  
     316A      1.424923   317A      1.430213   318A      1.443005  
     319A      1.447234   320A      1.453687   321A      1.455589  
     322A      1.475036   323A      1.485261   324A      1.499006  
     325A      1.503001   326A      1.518113   327A      1.519013  
     328A      1.528013   329A      1.538786   330A      1.543186  
     331A      1.547678   332A      1.554122   333A      1.560656  
     334A      1.571806   335A      1.580085   336A      1.587162  
     337A      1.596032   338A      1.599597   339A      1.600193  
     340A      1.608396   341A      1.610058   342A      1.622366  
     343A      1.624868   344A      1.637343   345A      1.642880  
     346A      1.647256   347A      1.653592   348A      1.664202  
     349A      1.666419   350A      1.673481   351A      1.680567  
     352A      1.684555   353A      1.692669   354A      1.696504  
     355A      1.700633   356A      1.706407   357A      1.713455  
     358A      1.721927   359A      1.730722   360A      1.737275  
     361A      1.748203   362A      1.750664   363A      1.759477  
     364A      1.766535   365A      1.768608   366A      1.771879  
     367A      1.778218   368A      1.784632   369A      1.788061  
     370A      1.794143   371A      1.796405   372A      1.802061  
     373A      1.805434   374A      1.814233   375A      1.821595  
     376A      1.824093   377A      1.830092   378A      1.833302  
     379A      1.846727   380A      1.854199   381A      1.857123  
     382A      1.862681   383A      1.866240   384A      1.873313  
     385A      1.883444   386A      1.886018   387A      1.886623  
     388A      1.902120   389A      1.908962   390A      1.915396  
     391A      1.916357   392A      1.927366   393A      1.935299  
     394A      1.942389   395A      1.949118   396A      1.961407  
     397A      1.970661   398A      1.975394   399A      1.987926  
     400A      1.993210   401A      1.993600   402A      1.997402  
     403A      2.004705   404A      2.006156   405A      2.021879  
     406A      2.024668   407A      2.032394   408A      2.037938  
     409A      2.046196   410A      2.053929   411A      2.056792  
     412A      2.065851   413A      2.085170   414A      2.087656  
     415A      2.092594   416A      2.096322   417A      2.102953  
     418A      2.115767   419A      2.120173   420A      2.121382  
     421A      2.128720   422A      2.138552   423A      2.152627  
     424A      2.154682   425A      2.163923   426A      2.174150  
     427A      2.193609   428A      2.200460   429A      2.200994  
     430A      2.220342   431A      2.232029   432A      2.239866  
     433A      2.246422   434A      2.252145   435A      2.272293  
     436A      2.279122   437A      2.284072   438A      2.291011  
     439A      2.300140   440A      2.304234   441A      2.316017  
     442A      2.321697   443A      2.325027   444A      2.341857  
     445A      2.349685   446A      2.353919   447A      2.362126  
     448A      2.369223   449A      2.375450   450A      2.381196  
     451A      2.391848   452A      2.414024   453A      2.418432  
     454A      2.434387   455A      2.435744   456A      2.438909  
     457A      2.453529   458A      2.463498   459A      2.477165  
     460A      2.481861   461A      2.492720   462A      2.497052  
     463A      2.519208   464A      2.528615   465A      2.533786  
     466A      2.548771   467A      2.553842   468A      2.572550  
     469A      2.591169   470A      2.599141   471A      2.611416  
     472A      2.617127   473A      2.629475   474A      2.640504  
     475A      2.650829   476A      2.672392   477A      2.692257  
     478A      2.707979   479A      2.745234   480A      2.773516  
     481A      2.797910   482A      2.825148   483A      2.871604  
     484A      2.910035   485A      2.930045   486A      2.951472  
     487A      2.999845   488A      3.012933   489A      3.016670  
     490A      3.096974   491A      3.140982   492A      3.210182  
     493A      3.259658   494A      3.296401   495A      3.315840  
     496A      3.396699   497A      3.427624   498A      3.433707  
     499A      3.448774   500A      3.454060   501A      3.474743  
     502A      3.492117   503A      3.507358   504A      3.522600  
     505A      3.526582   506A      3.538097   507A      3.547861  
     508A      3.561634   509A      3.573888   510A      3.583286  
     511A      3.586412   512A      3.595503   513A      3.617438  
     514A      3.623552   515A      3.635348   516A      3.655708  
     517A      3.664262   518A      3.670905   519A      3.683389  
     520A      3.687023   521A      3.697906   522A      3.705418  
     523A      3.717952   524A      3.718560   525A      3.732481  
     526A      3.743648   527A      3.753338   528A      3.761508  
     529A      3.770668   530A      3.777754   531A      3.793214  
     532A      3.798478   533A      3.803294   534A      3.813216  
     535A      3.815756   536A      3.828922   537A      3.835178  
     538A      3.847117   539A      3.855275   540A      3.860079  
     541A      3.867525   542A      3.870960   543A      3.877502  
     544A      3.884281   545A      3.894935   546A      3.902064  
     547A      3.907611   548A      3.922470   549A      3.938914  
     550A      3.941497   551A      3.950002   552A      3.963651  
     553A      3.965823   554A      3.971968   555A      3.975583  
     556A      3.977936   557A      3.988247   558A      3.994578  
     559A      4.000441   560A      4.013430   561A      4.015133  
     562A      4.029974   563A      4.032413   564A      4.035768  
     565A      4.042587   566A      4.052060   567A      4.060747  
     568A      4.069543   569A      4.074142   570A      4.081873  
     571A      4.087556   572A      4.091558   573A      4.103881  
     574A      4.110286   575A      4.116708   576A      4.129730  
     577A      4.148132   578A      4.152628   579A      4.155201  
     580A      4.172995   581A      4.185240   582A      4.194431  
     583A      4.198691   584A      4.214787   585A      4.217715  
     586A      4.223125   587A      4.245730   588A      4.251233  
     589A      4.253323   590A      4.263743   591A      4.272070  
     592A      4.277737   593A      4.287150   594A      4.288255  
     595A      4.305216   596A      4.324722   597A      4.334841  
     598A      4.337391   599A      4.358072   600A      4.369079  
     601A      4.377620   602A      4.388737   603A      4.397262  
     604A      4.407143   605A      4.420121   606A      4.428400  
     607A      4.443028   608A      4.449073   609A      4.458209  
     610A      4.471593   611A      4.493063   612A      4.510467  
     613A      4.524825   614A      4.529799   615A      4.560670  
     616A      4.561249   617A      4.577979   618A      4.587305  
     619A      4.599815   620A      4.608936   621A      4.630826  
     622A      4.647531   623A      4.654437   624A      4.667370  
     625A      4.672982   626A      4.681590   627A      4.689772  
     628A      4.702920   629A      4.723760   630A      4.729759  
     631A      4.734607   632A      4.749103   633A      4.758716  
     634A      4.765850   635A      4.773955   636A      4.786061  
     637A      4.798189   638A      4.813949   639A      4.822605  
     640A      4.825635   641A      4.833476   642A      4.852149  
     643A      4.855660   644A      4.869921   645A      4.879258  
     646A      4.886650   647A      4.904375   648A      4.910626  
     649A      4.917039   650A      4.930291   651A      4.945487  
     652A      4.960042   653A      4.964578   654A      4.973481  
     655A      4.985504   656A      4.999903   657A      5.008983  
     658A      5.031459   659A      5.044566   660A      5.058686  
     661A      5.067307   662A      5.079993   663A      5.086402  
     664A      5.093679   665A      5.133374   666A      5.143468  
     667A      5.153369   668A      5.162055   669A      5.169793  
     670A      5.181082   671A      5.197897   672A      5.207583  
     673A      5.225033   674A      5.244514   675A      5.245826  
     676A      5.257269   677A      5.265959   678A      5.272821  
     679A      5.281938   680A      5.286922   681A      5.308475  
     682A      5.321511   683A      5.325323   684A      5.337628  
     685A      5.349922   686A      5.355577   687A      5.375974  
     688A      5.376258   689A      5.396113   690A      5.402469  
     691A      5.408894   692A      5.414655   693A      5.420963  
     694A      5.431978   695A      5.441994   696A      5.450899  
     697A      5.465247   698A      5.472716   699A      5.485085  
     700A      5.492402   701A      5.496118   702A      5.522009  
     703A      5.539405   704A      5.554268   705A      5.581238  
     706A      5.588192   707A      5.597053   708A      5.607780  
     709A      5.614174   710A      5.624180   711A      5.637375  
     712A      5.647116   713A      5.664190   714A      5.668553  
     715A      5.671520   716A      5.703403   717A      5.705011  
     718A      5.723130   719A      5.724737   720A      5.736602  
     721A      5.751293   722A      5.775803   723A      5.798533  
     724A      5.815841   725A      5.836399   726A      5.845401  
     727A      5.862006   728A      5.877121   729A      5.882319  
     730A      5.905624   731A      5.920287   732A      5.944092  
     733A      5.958532   734A      5.984670   735A      6.001526  
     736A      6.028875   737A      6.034307   738A      6.041588  
     739A      6.086617   740A      6.129137   741A      6.136484  
     742A      6.140998   743A      6.168880   744A      6.186326  
     745A      6.207647   746A      6.223609   747A      6.239240  
     748A      6.257366   749A      6.269890   750A      6.271234  
     751A      6.304712   752A      6.314538   753A      6.328696  
     754A      6.341111   755A      6.362254   756A      6.371269  
     757A      6.414806   758A      6.423110   759A      6.531765  
     760A      6.588139   761A      6.641244   762A      6.671154  
     763A      6.718822   764A      6.754647   765A      6.772950  
     766A      6.847986   767A      6.852075   768A      6.871972  
     769A      6.910268   770A      6.930489   771A      7.001063  
     772A      7.039472   773A      7.058907   774A      7.148798  
     775A     17.875409   776A     17.999742   777A     18.152855  
     778A     18.430966   779A     18.561854   780A     18.780575  
     781A     19.280853   782A     19.724831  

    Final Occupation by Irrep:
              A 
    DOCC [    33 ]

  Energy converged.

  @DF-RHF Final Energy:  -313.54389277778017

   => Energetics <=

    Nuclear Repulsion Energy =            389.2526814553207828
    One-Electron Energy =               -1193.6477914065858386
    Two-Electron Energy =                 490.8512171734845992
    DFT Exchange-Correlation Energy =       0.0000000000000000
    Empirical Dispersion Energy =           0.0000000000000000
    PCM Polarization Energy =               0.0000000000000000
    EFP Energy =                            0.0000000000000000
    Total Energy =                       -313.5438927777805134


  Saving occupied orbitals to File 180.

*** tstop() called on wr42 at Sun Sep 25 08:59:18 2016
Module time:
	user time   =     603.36 seconds =      10.06 minutes
	system time =      10.72 seconds =       0.18 minutes
	total time  =        371 seconds =       6.18 minutes
Total time:
	user time   =     603.36 seconds =      10.06 minutes
	system time =      10.72 seconds =       0.18 minutes
	total time  =        371 seconds =       6.18 minutes


Properties will be evaluated at   0.000000,   0.000000,   0.000000 Bohr

Properties computed using the SCF density matrix

  Nuclear Dipole Moment: (a.u.)
     X:     0.8996      Y:     1.2904      Z:     0.5604

  Electronic Dipole Moment: (a.u.)
     X:    -0.9196      Y:    -1.3009      Z:    -0.5945

  Dipole Moment: (a.u.)
     X:    -0.0200      Y:    -0.0105      Z:    -0.0341     Total:     0.0409

  Dipole Moment: (Debye)
     X:    -0.0508      Y:    -0.0268      Z:    -0.0866     Total:     0.1039


*** tstart() called on wr42
*** at Sun Sep 25 08:59:19 2016



  Options:
  ----------------------------------------------------------------------------
  ACTIVE                      => [  ]             
  BENCH                       => 0                
  CC_DIIS_MAX_VECS            => 6                
  CC_DIIS_MIN_VECS            => 2                
  CC_LAMBDA                   => FALSE            
  CC_MAXITER                  => 50               
  CC_TYPE                     => CONV             
  CHOLESKY                    => FALSE           !
  CHOLESKY_TOLERANCE          => 0.0001           
  CI_TYPE                     => CONV             
  COMPUT_S2                   => FALSE            
  CUBEPROP_BASIS_FUNCTIONS    => [  ]             
  CUBEPROP_FILEPATH           => .                
  CUBEPROP_ORBITALS           => [  ]             
  CUBEPROP_TASKS              => [  ]             
  CUBIC_BASIS_TOLERANCE       => 1e-12            
  CUBIC_BLOCK_MAX_POINTS      => 1000             
  CUBIC_GRID_OVERAGE          => [  ]             
  CUBIC_GRID_SPACING          => [  ]             
  CUTOFF                      => 8                
  DEBUG                       => 0                
  DERTYPE                     => NONE             
  DF_BASIS_CC                 => (empty)          
  DIE_IF_NOT_CONVERGED        => TRUE             
  DKH_ORDER                   => 2                
  DOCC                        => [  ]             
  DO_DIIS                     => TRUE             
  DO_LEVEL_SHIFT              => TRUE             
  DO_SCS                      => FALSE           !
  DO_SOS                      => FALSE           !
  E3_SCALE                    => 0.25             
  EKT_IP                      => FALSE            
  EXTERNAL_POTENTIAL_SYMMETRY => FALSE            
  E_CONVERGENCE               => 1e-06           !
  FREEZE_CORE                 => TRUE            !
  FROZEN_DOCC                 => [  ]             
  FROZEN_UOCC                 => [  ]             
  HESS_TYPE                   => HF               
  INTEGRAL_CUTOFF             => 9                
  INTEGRAL_PACKAGE            => ERD              
  LEVEL_SHIFT                 => 0.02             
  LINEQ_SOLVER                => CDGESV           
  LITERAL_CFOUR               => (empty)          
  MAT_NUM_COLUMN_PRINT        => 5                
  MAX_MOGRAD_CONVERGENCE      => 0.001            
  MOLDEN_WRITE                => FALSE            
  MO_DIIS_NUM_VECS            => 6                
  MO_MAXITER                  => 50               
  MO_STEP_MAX                 => 0.5              
  MP2_AMP_TYPE                => DIRECT           
  MP2_OS_SCALE                => 1.2              
  MP2_SOS_SCALE               => 1.3              
  MP2_SOS_SCALE2              => 1.2              
  MP2_SS_SCALE                => 0.333333         
  MP2_TYPE                    => DF               
  MP_TYPE                     => DF              !
  NAT_ORBS                    => FALSE            
  NUM_FROZEN_DOCC             => 0                
  NUM_FROZEN_UOCC             => 0                
  OCC_ORBS_PRINT              => FALSE            
  OEPROP                      => FALSE            
  OO_SCALE                    => 0.01             
  OPT_METHOD                  => QNR              
  ORB_OPT                     => FALSE           !
  ORB_RESP_SOLVER             => PCG              
  ORTH_TYPE                   => MGS              
  PCG_BETA_TYPE               => FLETCHER_REEVES  
  PCG_CONVERGENCE             => 1e-06            
  PCG_MAXITER                 => 50               
  PCM                         => FALSE            
  PCM_SCF_TYPE                => TOTAL            
  PPL_TYPE                    => AUTO             
  PRINT                       => 1                
  PRINT_NOONS                 => 3                
  PROPERTIES                  => [  ]             
  PROPERTIES_ORIGIN           => [  ]             
  PUREAM                      => TRUE             
  QCHF                        => FALSE            
  QC_MODULE                   => (empty)          
  RAS1                        => [  ]             
  RAS2                        => [  ]             
  RAS3                        => [  ]             
  RAS4                        => [  ]             
  READ_SCF_3INDEX             => TRUE             
  REGULARIZATION              => FALSE            
  REG_PARAM                   => 0.4              
  RELATIVISTIC                => NO               
  REL_BASIS                   => (empty)          
  RESTRICTED_DOCC             => [  ]             
  RESTRICTED_UOCC             => [  ]             
  RMS_MOGRAD_CONVERGENCE      => 1e-06            
  RUN_CCTRANSORT              => TRUE             
  R_CONVERGENCE               => 1e-05            
  SCS_TYPE                    => SCS              
  SOCC                        => [  ]             
  SOS_TYPE                    => SOS              
  TRIPLES_IABC_TYPE           => DISK             
  UNITS                       => ANGSTROMS        
  WFN                         => SCF              
  WFN_TYPE                    => DF-OMP2.5       !
  WRITER_FILE_LABEL           => (empty)          


 ============================================================================== 
 ============================================================================== 
 ============================================================================== 

                    DF-MP2.5  
              Program Written by Ugur Bozkaya
              Latest Revision April 17, 2016

 ============================================================================== 
 ============================================================================== 
 ============================================================================== 

	MO spaces... 

	 FC   OCC   VIR   FV 
	----------------------
	  8   25   749    0

	Number of basis functions in the DF-CC basis: 1676

	Available memory                      :  38146.97 MB 
	Memory requirement for 3-index ints   :   7420.87 MB 
	Memory requirement for DF-CC int trans:  22482.42 MB 
	Memory requirement for CC contractions:  18644.11 MB 
	Total memory requirement for DF+CC int:  26064.98 MB 
	Memory requirement for Wabef term     :  20227.74 MB 

	Computing DF-MP2 energy ... 
	======================================================================= 
	Nuclear Repulsion Energy (a.u.)    :   389.25268145532078
	DF-HF Energy (a.u.)                :  -313.54389277778017
	REF Energy (a.u.)                  :  -313.54389277778017
	DF-MP2 Correlation Energy (a.u.)   :    -1.44046395849933
	DF-MP2 Total Energy (a.u.)         :  -314.98435673627949
	======================================================================= 

	======================================================================= 
	================ MP2.5 FINAL RESULTS ================================== 
	======================================================================= 
	Nuclear Repulsion Energy (a.u.)    :   389.25268145532078
	SCF Energy (a.u.)                  :  -313.54389277778017
	REF Energy (a.u.)                  :  -313.54389277778017
	DF-MP3 Correlation Energy (a.u.)   :    -1.52705014339097
	DF-MP3 Total Energy (a.u.)         :  -315.07094292117114
	DF-MP2.5 Correlation Energy (a.u.) :    -1.48375705094517
	DF-MP2.5 Total Energy (a.u.)       :  -315.02764982872532
	======================================================================= 


*** tstop() called on wr42 at Sun Sep 25 11:02:00 2016
Module time:
	user time   =   43238.81 seconds =     720.65 minutes
	system time =     980.07 seconds =      16.33 minutes
	total time  =       7361 seconds =     122.68 minutes
Total time:
	user time   =   43842.27 seconds =     730.70 minutes
	system time =     990.79 seconds =      16.51 minutes
	total time  =       7733 seconds =     128.88 minutes

*** Psi4 exiting successfully. Buy a developer a beer!
