    -----------------------------------------------------------------------
          Psi4: An Open-Source Ab Initio Electronic Structure Package
                              Psi4 1.0.0 Driver

                          Git: Rev {master} 6a9a71b dirty

    J. M. Turney, A. C. Simmonett, R. M. Parrish, E. G. Hohenstein,
    F. A. Evangelista, J. T. Fermann, B. J. Mintz, L. A. Burns, J. J. Wilke,
    M. L. Abrams, N. J. Russ, M. L. Leininger, C. L. Janssen, E. T. Seidl,
    W. D. Allen, H. F. Schaefer, R. A. King, E. F. Valeev, C. D. Sherrill,
    and T. D. Crawford, WIREs Comput. Mol. Sci. 2, 556-565 (2012)
    (doi: 10.1002/wcms.93)

                         Additional Contributions by
    A. E. DePrince, U. Bozkaya, A. Yu. Sokolov, D. G. A. Smith, R. Di Remigio,
    R. M. Richard, J. F. Gonthier, H. R. McAlexander, M. Saitow, and
    B. P. Pritchard
    -----------------------------------------------------------------------


    Psi4 started on: Sun Sep 25 08:53:06 2016

    Process ID:  16961
    PSI4DATADIR: /usr/local/hpc5/psi4conda/share/psi4
    Memory level set to 256.000 MB

  ==> Input File <==

--------------------------------------------------------------------------
memory 40 Gb

molecule molecule_10_psi {
0 1
    C           -2.262081522688     0.126249661852    -1.545983157913
    H           -2.618830167874     1.154690245091    -1.625450003523
    H           -2.778016067888    -0.466969153695    -2.300597931460
    H           -1.200767735106     0.123856672532    -1.794807361095
    C            2.264731086738    -0.127398276978    -1.541999158433
    H            1.203845912570    -0.125190620262    -1.792647333758
    H            2.621614783636    -1.155897916295    -1.620088067367
    H            2.781961543272     0.465259158760    -2.296168250637
    C           -2.509590357713    -0.425345257941    -0.146414760645
    H           -2.112649367002    -1.440361069196    -0.076674178366
    H           -3.585347025333    -0.506598548444     0.024352453220
    C            2.509837389716     0.425238773000    -0.142418938051
    H            3.585299520365     0.506620877087     0.030133227413
    H            2.112776894287     1.440305738645    -0.074115087164
    C           -1.905177058345     0.443493927266     0.956279526941
    H           -2.122483375905    -0.010509107293     1.927410318471
    H           -2.402527772244     1.417927622804     0.948663613304
    C           -0.395908567445     0.652366537806     0.837003579910
    H           -0.057567285491     1.271562277132     1.673722503197
    H           -0.174531220514     1.220849909701    -0.069458069795
    C            0.394471300295    -0.651744590227     0.838173460652
    H            0.054693595892    -1.270309798020     1.674776714675
    H            0.174648613179    -1.220910834146    -0.068238228742
    C            1.903533595408    -0.442781073708     0.959882892535
    H            2.119174458978     0.011945017811     1.931046855500
    H            2.400897147575    -1.417219459196     0.953844917924
}

set globals {
  reference rhf
  basis aug-cc-pvtz
  scf_type df
  mp_type df
  freeze_core true
}
energy('mp2.5')
--------------------------------------------------------------------------
/usr/local/hpc5/psi4conda/lib/python2.7/site-packages/v2rdm_casscf/v2rdm_casscf.so loaded.

  Memory set to  40.000 GiB by Python script.

*** tstart() called on wr38
*** at Sun Sep 25 08:53:07 2016


         ---------------------------------------------------------
                                   SCF
            by Justin Turney, Rob Parrish, and Andy Simmonett
                              RHF Reference
                       12 Threads,  40000 MiB Core
         ---------------------------------------------------------

  ==> Geometry <==

    Molecular point group: c1
    Full point group: C1

    Geometry (in Angstrom), charge = 0, multiplicity = 1:

       Center              X                  Y                   Z               Mass       
    ------------   -----------------  -----------------  -----------------  -----------------
           C         -2.262081522688     0.126249661852    -1.545983157913    12.000000000000
           H         -2.618830167874     1.154690245091    -1.625450003523     1.007825032070
           H         -2.778016067888    -0.466969153695    -2.300597931460     1.007825032070
           H         -1.200767735106     0.123856672532    -1.794807361095     1.007825032070
           C          2.264731086738    -0.127398276978    -1.541999158433    12.000000000000
           H          1.203845912570    -0.125190620262    -1.792647333758     1.007825032070
           H          2.621614783636    -1.155897916295    -1.620088067367     1.007825032070
           H          2.781961543272     0.465259158760    -2.296168250637     1.007825032070
           C         -2.509590357713    -0.425345257941    -0.146414760645    12.000000000000
           H         -2.112649367002    -1.440361069196    -0.076674178366     1.007825032070
           H         -3.585347025333    -0.506598548444     0.024352453220     1.007825032070
           C          2.509837389716     0.425238773000    -0.142418938051    12.000000000000
           H          3.585299520365     0.506620877087     0.030133227413     1.007825032070
           H          2.112776894287     1.440305738645    -0.074115087164     1.007825032070
           C         -1.905177058345     0.443493927266     0.956279526941    12.000000000000
           H         -2.122483375905    -0.010509107293     1.927410318471     1.007825032070
           H         -2.402527772244     1.417927622804     0.948663613304     1.007825032070
           C         -0.395908567445     0.652366537806     0.837003579910    12.000000000000
           H         -0.057567285491     1.271562277132     1.673722503197     1.007825032070
           H         -0.174531220514     1.220849909701    -0.069458069795     1.007825032070
           C          0.394471300295    -0.651744590227     0.838173460652    12.000000000000
           H          0.054693595892    -1.270309798020     1.674776714675     1.007825032070
           H          0.174648613179    -1.220910834146    -0.068238228742     1.007825032070
           C          1.903533595408    -0.442781073708     0.959882892535    12.000000000000
           H          2.119174458978     0.011945017811     1.931046855500     1.007825032070
           H          2.400897147575    -1.417219459196     0.953844917924     1.007825032070

  Running in c1 symmetry.

  Rotational constants: A =      0.09822  B =      0.03435  C =      0.02871 [cm^-1]
  Rotational constants: A =   2944.48419  B =   1029.87726  C =    860.76914 [MHz]
  Nuclear repulsion =  404.723563740604106

  Charge       = 0
  Multiplicity = 1
  Electrons    = 66
  Nalpha       = 33
  Nbeta        = 33

  ==> Algorithm <==

  SCF Algorithm Type is DF.
  DIIS enabled.
  MOM disabled.
  Fractional occupation disabled.
  Guess Type is SAD.
  Energy threshold   = 1.00e-08
  Density threshold  = 1.00e-08
  Integral threshold = 0.00e+00

  ==> Primary Basis <==

  Basis Set: AUG-CC-PVTZ
    Number of shells: 274
    Number of basis function: 782
    Number of Cartesian functions: 890
    Spherical Harmonics?: true
    Max angular momentum: 3

  ==> Pre-Iterations <==

   -------------------------------------------------------
    Irrep   Nso     Nmo     Nalpha   Nbeta   Ndocc  Nsocc
   -------------------------------------------------------
     A        782     782       0       0       0       0
   -------------------------------------------------------
    Total     782     782      33      33      33       0
   -------------------------------------------------------

  ==> Integral Setup <==

  ==> DFJK: Density-Fitted J/K Matrices <==

    J tasked:                  Yes
    K tasked:                  Yes
    wK tasked:                  No
    OpenMP threads:             12
    Integrals threads:          12
    Memory (MB):             28610
    Algorithm:                Core
    Integral Cache:           SAVE
    Schwarz Cutoff:          1E-12
    Fitting Condition:       1E-12

   => Auxiliary Basis Set <=

  Basis Set: 
    Number of shells: 492
    Number of basis function: 1660
    Number of Cartesian functions: 2038
    Spherical Harmonics?: true
    Max angular momentum: 4

  Minimum eigenvalue in the overlap matrix is 1.6157269230E-06.
  Using Symmetric Orthogonalization.
  SCF Guess: Superposition of Atomic Densities via on-the-fly atomic UHF.

  ==> Iterations <==

                           Total Energy        Delta E     RMS |[F,P]|

   @DF-RHF iter   0:  -317.04523370644523   -3.17045e+02   7.04392e-03 
   @DF-RHF iter   1:  -313.29925104197088    3.74598e+00   7.07433e-04 
   @DF-RHF iter   2:  -313.50841305224282   -2.09162e-01   2.56432e-04 DIIS
   @DF-RHF iter   3:  -313.53410500902379   -2.56920e-02   1.04466e-04 DIIS
   @DF-RHF iter   4:  -313.53921578224111   -5.11077e-03   1.64033e-05 DIIS
   @DF-RHF iter   5:  -313.53940669015566   -1.90908e-04   4.31609e-06 DIIS
   @DF-RHF iter   6:  -313.53941791532492   -1.12252e-05   1.36124e-06 DIIS
   @DF-RHF iter   7:  -313.53941892935308   -1.01403e-06   2.23751e-07 DIIS
   @DF-RHF iter   8:  -313.53941897096064   -4.16076e-08   5.34671e-08 DIIS
   @DF-RHF iter   9:  -313.53941897277940   -1.81876e-09   1.74347e-08 DIIS
   @DF-RHF iter  10:  -313.53941897295994   -1.80535e-10   4.31381e-09 DIIS

  ==> Post-Iterations <==

    Orbital Energies (a.u.)
    -----------------------

    Doubly Occupied:                                                      

       1A    -11.212147     2A    -11.212147     3A    -11.210712  
       4A    -11.210687     5A    -11.209480     6A    -11.208878  
       7A    -11.207323     8A    -11.207322     9A     -1.096084  
      10A     -1.060256    11A     -1.003510    12A     -0.947513  
      13A     -0.887966    14A     -0.842963    15A     -0.781969  
      16A     -0.743604    17A     -0.648206    18A     -0.634973  
      19A     -0.613144    20A     -0.604648    21A     -0.568739  
      22A     -0.550009    23A     -0.542986    24A     -0.537791  
      25A     -0.522788    26A     -0.501200    27A     -0.495270  
      28A     -0.471660    29A     -0.462663    30A     -0.459125  
      31A     -0.444415    32A     -0.438342    33A     -0.435803  

    Virtual:                                                              

      34A      0.029451    35A      0.032358    36A      0.034532  
      37A      0.035131    38A      0.046889    39A      0.047190  
      40A      0.051065    41A      0.053867    42A      0.054315  
      43A      0.067816    44A      0.071213    45A      0.071579  
      46A      0.074960    47A      0.079186    48A      0.084913  
      49A      0.090144    50A      0.101249    51A      0.105086  
      52A      0.115238    53A      0.118259    54A      0.119111  
      55A      0.125902    56A      0.128480    57A      0.129145  
      58A      0.133385    59A      0.133487    60A      0.140107  
      61A      0.143638    62A      0.145716    63A      0.151887  
      64A      0.155396    65A      0.158155    66A      0.159587  
      67A      0.163935    68A      0.165410    69A      0.170490  
      70A      0.176856    71A      0.177633    72A      0.187279  
      73A      0.190778    74A      0.191260    75A      0.193757  
      76A      0.208429    77A      0.213940    78A      0.220828  
      79A      0.224910    80A      0.228278    81A      0.239705  
      82A      0.242254    83A      0.248243    84A      0.260808  
      85A      0.269763    86A      0.279469    87A      0.283419  
      88A      0.286513    89A      0.286666    90A      0.296790  
      91A      0.298308    92A      0.307113    93A      0.307534  
      94A      0.310124    95A      0.316639    96A      0.319579  
      97A      0.324885    98A      0.326132    99A      0.331877  
     100A      0.336396   101A      0.342030   102A      0.345094  
     103A      0.346648   104A      0.349505   105A      0.350845  
     106A      0.360497   107A      0.365170   108A      0.369425  
     109A      0.373205   110A      0.376294   111A      0.377436  
     112A      0.381811   113A      0.385159   114A      0.388123  
     115A      0.391948   116A      0.397921   117A      0.398213  
     118A      0.402377   119A      0.414273   120A      0.414838  
     121A      0.422297   122A      0.427914   123A      0.431498  
     124A      0.431558   125A      0.436504   126A      0.439869  
     127A      0.444833   128A      0.445671   129A      0.447733  
     130A      0.452126   131A      0.458157   132A      0.468185  
     133A      0.470194   134A      0.470301   135A      0.477894  
     136A      0.482513   137A      0.482782   138A      0.487847  
     139A      0.491819   140A      0.496263   141A      0.497477  
     142A      0.498162   143A      0.505303   144A      0.512567  
     145A      0.515530   146A      0.519238   147A      0.524146  
     148A      0.524882   149A      0.533266   150A      0.534730  
     151A      0.536672   152A      0.544446   153A      0.546655  
     154A      0.554241   155A      0.559828   156A      0.564544  
     157A      0.564882   158A      0.570077   159A      0.571013  
     160A      0.573592   161A      0.582516   162A      0.586978  
     163A      0.590002   164A      0.590899   165A      0.599194  
     166A      0.603343   167A      0.607632   168A      0.608562  
     169A      0.612490   170A      0.622028   171A      0.632529  
     172A      0.632614   173A      0.642502   174A      0.643427  
     175A      0.654158   176A      0.656284   177A      0.659921  
     178A      0.662480   179A      0.668095   180A      0.670655  
     181A      0.675482   182A      0.688345   183A      0.692692  
     184A      0.698221   185A      0.705873   186A      0.705879  
     187A      0.709757   188A      0.720301   189A      0.722596  
     190A      0.726664   191A      0.737720   192A      0.749417  
     193A      0.751541   194A      0.751745   195A      0.758945  
     196A      0.768229   197A      0.773406   198A      0.773954  
     199A      0.779502   200A      0.788942   201A      0.802890  
     202A      0.804075   203A      0.809233   204A      0.820002  
     205A      0.826871   206A      0.843546   207A      0.844886  
     208A      0.846654   209A      0.849611   210A      0.862776  
     211A      0.870927   212A      0.875516   213A      0.884260  
     214A      0.887600   215A      0.893551   216A      0.895311  
     217A      0.903036   218A      0.906457   219A      0.916754  
     220A      0.922018   221A      0.925989   222A      0.935070  
     223A      0.936848   224A      0.945332   225A      0.947677  
     226A      0.959022   227A      0.962728   228A      0.966284  
     229A      0.972105   230A      0.974605   231A      0.978862  
     232A      0.982790   233A      0.984354   234A      0.991250  
     235A      0.991765   236A      0.993733   237A      1.004249  
     238A      1.008466   239A      1.018776   240A      1.024941  
     241A      1.028171   242A      1.032084   243A      1.036604  
     244A      1.039445   245A      1.044712   246A      1.048416  
     247A      1.056026   248A      1.059688   249A      1.061905  
     250A      1.075313   251A      1.081248   252A      1.081640  
     253A      1.094559   254A      1.098623   255A      1.101448  
     256A      1.108399   257A      1.114624   258A      1.127092  
     259A      1.133135   260A      1.138161   261A      1.141676  
     262A      1.144881   263A      1.148927   264A      1.162555  
     265A      1.165361   266A      1.166407   267A      1.170674  
     268A      1.173205   269A      1.182581   270A      1.185687  
     271A      1.189615   272A      1.195048   273A      1.197820  
     274A      1.204507   275A      1.207169   276A      1.210354  
     277A      1.214486   278A      1.221592   279A      1.226142  
     280A      1.235829   281A      1.247209   282A      1.248370  
     283A      1.253632   284A      1.256793   285A      1.258757  
     286A      1.263968   287A      1.267948   288A      1.268451  
     289A      1.282899   290A      1.293154   291A      1.295844  
     292A      1.301135   293A      1.305655   294A      1.311734  
     295A      1.315137   296A      1.316897   297A      1.322369  
     298A      1.329269   299A      1.336841   300A      1.343747  
     301A      1.350646   302A      1.358406   303A      1.359283  
     304A      1.382046   305A      1.389008   306A      1.390986  
     307A      1.391518   308A      1.400436   309A      1.410421  
     310A      1.415530   311A      1.429721   312A      1.432908  
     313A      1.443204   314A      1.457207   315A      1.461041  
     316A      1.465475   317A      1.468308   318A      1.471199  
     319A      1.485480   320A      1.490911   321A      1.501965  
     322A      1.502547   323A      1.505045   324A      1.513284  
     325A      1.516601   326A      1.525950   327A      1.535680  
     328A      1.544128   329A      1.544135   330A      1.562674  
     331A      1.566893   332A      1.576207   333A      1.591704  
     334A      1.593249   335A      1.601251   336A      1.603910  
     337A      1.609541   338A      1.609902   339A      1.630519  
     340A      1.632713   341A      1.635428   342A      1.637343  
     343A      1.646873   344A      1.655553   345A      1.660757  
     346A      1.664002   347A      1.674221   348A      1.675235  
     349A      1.681906   350A      1.689369   351A      1.691854  
     352A      1.693917   353A      1.709169   354A      1.723446  
     355A      1.724422   356A      1.737050   357A      1.737372  
     358A      1.753810   359A      1.756755   360A      1.760372  
     361A      1.767824   362A      1.768676   363A      1.777386  
     364A      1.784735   365A      1.788942   366A      1.795337  
     367A      1.816310   368A      1.817315   369A      1.818005  
     370A      1.824131   371A      1.826531   372A      1.839363  
     373A      1.841278   374A      1.850783   375A      1.853102  
     376A      1.868561   377A      1.874753   378A      1.875590  
     379A      1.884041   380A      1.887453   381A      1.889693  
     382A      1.897674   383A      1.904987   384A      1.906456  
     385A      1.911968   386A      1.926680   387A      1.928091  
     388A      1.937775   389A      1.941995   390A      1.951426  
     391A      1.958058   392A      1.970971   393A      1.987354  
     394A      1.990573   395A      2.001648   396A      2.003832  
     397A      2.007451   398A      2.009895   399A      2.011537  
     400A      2.018472   401A      2.019853   402A      2.028140  
     403A      2.034559   404A      2.042016   405A      2.048009  
     406A      2.059888   407A      2.067602   408A      2.069110  
     409A      2.076409   410A      2.078505   411A      2.093512  
     412A      2.095877   413A      2.103916   414A      2.112924  
     415A      2.121975   416A      2.126159   417A      2.130348  
     418A      2.136500   419A      2.150883   420A      2.157271  
     421A      2.164673   422A      2.171111   423A      2.176980  
     424A      2.193888   425A      2.203403   426A      2.213733  
     427A      2.215014   428A      2.223959   429A      2.245399  
     430A      2.246887   431A      2.264420   432A      2.264727  
     433A      2.275196   434A      2.276267   435A      2.287922  
     436A      2.300206   437A      2.316212   438A      2.323656  
     439A      2.328704   440A      2.349678   441A      2.350220  
     442A      2.352801   443A      2.368872   444A      2.371622  
     445A      2.378900   446A      2.385510   447A      2.390775  
     448A      2.404858   449A      2.409024   450A      2.417562  
     451A      2.442675   452A      2.443274   453A      2.455136  
     454A      2.466312   455A      2.469340   456A      2.480030  
     457A      2.489393   458A      2.505378   459A      2.511646  
     460A      2.516904   461A      2.528360   462A      2.547519  
     463A      2.556951   464A      2.565533   465A      2.580016  
     466A      2.591173   467A      2.598496   468A      2.609567  
     469A      2.611875   470A      2.630352   471A      2.641473  
     472A      2.659943   473A      2.664473   474A      2.678069  
     475A      2.690715   476A      2.697768   477A      2.708811  
     478A      2.729965   479A      2.731251   480A      2.749868  
     481A      2.774533   482A      2.796210   483A      2.819616  
     484A      2.876239   485A      2.918640   486A      2.987911  
     487A      2.990023   488A      3.048129   489A      3.116789  
     490A      3.133410   491A      3.243319   492A      3.264417  
     493A      3.270463   494A      3.366427   495A      3.405373  
     496A      3.427852   497A      3.436643   498A      3.451349  
     499A      3.462360   500A      3.492703   501A      3.511154  
     502A      3.511978   503A      3.517270   504A      3.534222  
     505A      3.537690   506A      3.573495   507A      3.581192  
     508A      3.592371   509A      3.599098   510A      3.605882  
     511A      3.618406   512A      3.623942   513A      3.651794  
     514A      3.663352   515A      3.673143   516A      3.681684  
     517A      3.691024   518A      3.696590   519A      3.702898  
     520A      3.715825   521A      3.722728   522A      3.733997  
     523A      3.744848   524A      3.749938   525A      3.767515  
     526A      3.770473   527A      3.786425   528A      3.790806  
     529A      3.799015   530A      3.804315   531A      3.811960  
     532A      3.821095   533A      3.833314   534A      3.835741  
     535A      3.841057   536A      3.861575   537A      3.864171  
     538A      3.864233   539A      3.872915   540A      3.886911  
     541A      3.890173   542A      3.903731   543A      3.921606  
     544A      3.931040   545A      3.938455   546A      3.943161  
     547A      3.948017   548A      3.958263   549A      3.965462  
     550A      3.969052   551A      3.972471   552A      3.990349  
     553A      3.996502   554A      4.003016   555A      4.012236  
     556A      4.022682   557A      4.025191   558A      4.033610  
     559A      4.038605   560A      4.050429   561A      4.055693  
     562A      4.056534   563A      4.072789   564A      4.073988  
     565A      4.080682   566A      4.088305   567A      4.096670  
     568A      4.101995   569A      4.106708   570A      4.111732  
     571A      4.118209   572A      4.137843   573A      4.151780  
     574A      4.155516   575A      4.161025   576A      4.162355  
     577A      4.179850   578A      4.181293   579A      4.187358  
     580A      4.188184   581A      4.196113   582A      4.198693  
     583A      4.240214   584A      4.245053   585A      4.249952  
     586A      4.251036   587A      4.256322   588A      4.257348  
     589A      4.271707   590A      4.286962   591A      4.293676  
     592A      4.297575   593A      4.309031   594A      4.324817  
     595A      4.324859   596A      4.347989   597A      4.357397  
     598A      4.371103   599A      4.377994   600A      4.392606  
     601A      4.402726   602A      4.406872   603A      4.415931  
     604A      4.437139   605A      4.440248   606A      4.457563  
     607A      4.465515   608A      4.472450   609A      4.490674  
     610A      4.490905   611A      4.501165   612A      4.514469  
     613A      4.516668   614A      4.561989   615A      4.571691  
     616A      4.581834   617A      4.616565   618A      4.626445  
     619A      4.633728   620A      4.641631   621A      4.643336  
     622A      4.660147   623A      4.667062   624A      4.689582  
     625A      4.691999   626A      4.700134   627A      4.711009  
     628A      4.731217   629A      4.732080   630A      4.741765  
     631A      4.744374   632A      4.744596   633A      4.769914  
     634A      4.784214   635A      4.798734   636A      4.808558  
     637A      4.823570   638A      4.823701   639A      4.838656  
     640A      4.846264   641A      4.854807   642A      4.872262  
     643A      4.878487   644A      4.894452   645A      4.905863  
     646A      4.908714   647A      4.917091   648A      4.925755  
     649A      4.950747   650A      4.957746   651A      4.966787  
     652A      4.990948   653A      4.992081   654A      5.000960  
     655A      5.001199   656A      5.022115   657A      5.032448  
     658A      5.061458   659A      5.071232   660A      5.082808  
     661A      5.101730   662A      5.119532   663A      5.133049  
     664A      5.133834   665A      5.150995   666A      5.158934  
     667A      5.163918   668A      5.164686   669A      5.199307  
     670A      5.203662   671A      5.218069   672A      5.239708  
     673A      5.258039   674A      5.258488   675A      5.272056  
     676A      5.278934   677A      5.282069   678A      5.294810  
     679A      5.311384   680A      5.329263   681A      5.334569  
     682A      5.343374   683A      5.356542   684A      5.370045  
     685A      5.375459   686A      5.385327   687A      5.396883  
     688A      5.399950   689A      5.408932   690A      5.415432  
     691A      5.422834   692A      5.427262   693A      5.438280  
     694A      5.441601   695A      5.459197   696A      5.472945  
     697A      5.483112   698A      5.514344   699A      5.523198  
     700A      5.525655   701A      5.540266   702A      5.556619  
     703A      5.572147   704A      5.592810   705A      5.595160  
     706A      5.626367   707A      5.629123   708A      5.631613  
     709A      5.638800   710A      5.645634   711A      5.657035  
     712A      5.669596   713A      5.680611   714A      5.695446  
     715A      5.708579   716A      5.712580   717A      5.730006  
     718A      5.740370   719A      5.750845   720A      5.758164  
     721A      5.784345   722A      5.784831   723A      5.795497  
     724A      5.807147   725A      5.844369   726A      5.857448  
     727A      5.881032   728A      5.898583   729A      5.918106  
     730A      5.925280   731A      5.955220   732A      5.977764  
     733A      5.992888   734A      6.001187   735A      6.030982  
     736A      6.034231   737A      6.057730   738A      6.086570  
     739A      6.096593   740A      6.116355   741A      6.145444  
     742A      6.152765   743A      6.176454   744A      6.180336  
     745A      6.198374   746A      6.249054   747A      6.268715  
     748A      6.306136   749A      6.321178   750A      6.323452  
     751A      6.347564   752A      6.348973   753A      6.366909  
     754A      6.367478   755A      6.391754   756A      6.392596  
     757A      6.450766   758A      6.492873   759A      6.609137  
     760A      6.650050   761A      6.663774   762A      6.712429  
     763A      6.755829   764A      6.766914   765A      6.839202  
     766A      6.885237   767A      6.923352   768A      6.932732  
     769A      6.992374   770A      7.024684   771A      7.029377  
     772A      7.086237   773A      7.086949   774A      7.191077  
     775A     18.061981   776A     18.070585   777A     18.390753  
     778A     18.519662   779A     18.662188   780A     19.187300  
     781A     19.717652   782A     19.890809  

    Final Occupation by Irrep:
              A 
    DOCC [    33 ]

  Energy converged.

  @DF-RHF Final Energy:  -313.53941897295994

   => Energetics <=

    Nuclear Repulsion Energy =            404.7235637406041064
    One-Electron Energy =               -1224.5773170920176653
    Two-Electron Energy =                 506.3143343784535091
    DFT Exchange-Correlation Energy =       0.0000000000000000
    Empirical Dispersion Energy =           0.0000000000000000
    PCM Polarization Energy =               0.0000000000000000
    EFP Energy =                            0.0000000000000000
    Total Energy =                       -313.5394189729601067


  Saving occupied orbitals to File 180.

*** tstop() called on wr38 at Sun Sep 25 09:04:06 2016
Module time:
	user time   =     626.15 seconds =      10.44 minutes
	system time =      10.58 seconds =       0.18 minutes
	total time  =        659 seconds =      10.98 minutes
Total time:
	user time   =     626.15 seconds =      10.44 minutes
	system time =      10.58 seconds =       0.18 minutes
	total time  =        659 seconds =      10.98 minutes


Properties will be evaluated at   0.000000,   0.000000,   0.000000 Bohr

Properties computed using the SCF density matrix

  Nuclear Dipole Moment: (a.u.)
     X:     0.0021      Y:    -0.0009      Z:    -2.3946

  Electronic Dipole Moment: (a.u.)
     X:    -0.0021      Y:     0.0009      Z:     2.4323

  Dipole Moment: (a.u.)
     X:    -0.0000      Y:     0.0000      Z:     0.0377     Total:     0.0377

  Dipole Moment: (Debye)
     X:    -0.0001      Y:     0.0000      Z:     0.0958     Total:     0.0958


*** tstart() called on wr38
*** at Sun Sep 25 09:04:06 2016



  Options:
  ----------------------------------------------------------------------------
  ACTIVE                      => [  ]             
  BENCH                       => 0                
  CC_DIIS_MAX_VECS            => 6                
  CC_DIIS_MIN_VECS            => 2                
  CC_LAMBDA                   => FALSE            
  CC_MAXITER                  => 50               
  CC_TYPE                     => CONV             
  CHOLESKY                    => FALSE           !
  CHOLESKY_TOLERANCE          => 0.0001           
  CI_TYPE                     => CONV             
  COMPUT_S2                   => FALSE            
  CUBEPROP_BASIS_FUNCTIONS    => [  ]             
  CUBEPROP_FILEPATH           => .                
  CUBEPROP_ORBITALS           => [  ]             
  CUBEPROP_TASKS              => [  ]             
  CUBIC_BASIS_TOLERANCE       => 1e-12            
  CUBIC_BLOCK_MAX_POINTS      => 1000             
  CUBIC_GRID_OVERAGE          => [  ]             
  CUBIC_GRID_SPACING          => [  ]             
  CUTOFF                      => 8                
  DEBUG                       => 0                
  DERTYPE                     => NONE             
  DF_BASIS_CC                 => (empty)          
  DIE_IF_NOT_CONVERGED        => TRUE             
  DKH_ORDER                   => 2                
  DOCC                        => [  ]             
  DO_DIIS                     => TRUE             
  DO_LEVEL_SHIFT              => TRUE             
  DO_SCS                      => FALSE           !
  DO_SOS                      => FALSE           !
  E3_SCALE                    => 0.25             
  EKT_IP                      => FALSE            
  EXTERNAL_POTENTIAL_SYMMETRY => FALSE            
  E_CONVERGENCE               => 1e-06           !
  FREEZE_CORE                 => TRUE            !
  FROZEN_DOCC                 => [  ]             
  FROZEN_UOCC                 => [  ]             
  HESS_TYPE                   => HF               
  INTEGRAL_CUTOFF             => 9                
  INTEGRAL_PACKAGE            => ERD              
  LEVEL_SHIFT                 => 0.02             
  LINEQ_SOLVER                => CDGESV           
  LITERAL_CFOUR               => (empty)          
  MAT_NUM_COLUMN_PRINT        => 5                
  MAX_MOGRAD_CONVERGENCE      => 0.001            
  MOLDEN_WRITE                => FALSE            
  MO_DIIS_NUM_VECS            => 6                
  MO_MAXITER                  => 50               
  MO_STEP_MAX                 => 0.5              
  MP2_AMP_TYPE                => DIRECT           
  MP2_OS_SCALE                => 1.2              
  MP2_SOS_SCALE               => 1.3              
  MP2_SOS_SCALE2              => 1.2              
  MP2_SS_SCALE                => 0.333333         
  MP2_TYPE                    => DF               
  MP_TYPE                     => DF              !
  NAT_ORBS                    => FALSE            
  NUM_FROZEN_DOCC             => 0                
  NUM_FROZEN_UOCC             => 0                
  OCC_ORBS_PRINT              => FALSE            
  OEPROP                      => FALSE            
  OO_SCALE                    => 0.01             
  OPT_METHOD                  => QNR              
  ORB_OPT                     => FALSE           !
  ORB_RESP_SOLVER             => PCG              
  ORTH_TYPE                   => MGS              
  PCG_BETA_TYPE               => FLETCHER_REEVES  
  PCG_CONVERGENCE             => 1e-06            
  PCG_MAXITER                 => 50               
  PCM                         => FALSE            
  PCM_SCF_TYPE                => TOTAL            
  PPL_TYPE                    => AUTO             
  PRINT                       => 1                
  PRINT_NOONS                 => 3                
  PROPERTIES                  => [  ]             
  PROPERTIES_ORIGIN           => [  ]             
  PUREAM                      => TRUE             
  QCHF                        => FALSE            
  QC_MODULE                   => (empty)          
  RAS1                        => [  ]             
  RAS2                        => [  ]             
  RAS3                        => [  ]             
  RAS4                        => [  ]             
  READ_SCF_3INDEX             => TRUE             
  REGULARIZATION              => FALSE            
  REG_PARAM                   => 0.4              
  RELATIVISTIC                => NO               
  REL_BASIS                   => (empty)          
  RESTRICTED_DOCC             => [  ]             
  RESTRICTED_UOCC             => [  ]             
  RMS_MOGRAD_CONVERGENCE      => 1e-06            
  RUN_CCTRANSORT              => TRUE             
  R_CONVERGENCE               => 1e-05            
  SCS_TYPE                    => SCS              
  SOCC                        => [  ]             
  SOS_TYPE                    => SOS              
  TRIPLES_IABC_TYPE           => DISK             
  UNITS                       => ANGSTROMS        
  WFN                         => SCF              
  WFN_TYPE                    => DF-OMP2.5       !
  WRITER_FILE_LABEL           => (empty)          


 ============================================================================== 
 ============================================================================== 
 ============================================================================== 

                    DF-MP2.5  
              Program Written by Ugur Bozkaya
              Latest Revision April 17, 2016

 ============================================================================== 
 ============================================================================== 
 ============================================================================== 

	MO spaces... 

	 FC   OCC   VIR   FV 
	----------------------
	  8   25   749    0

	Number of basis functions in the DF-CC basis: 1676

	Available memory                      :  38146.97 MB 
	Memory requirement for 3-index ints   :   7420.87 MB 
	Memory requirement for DF-CC int trans:  22482.42 MB 
	Memory requirement for CC contractions:  18644.11 MB 
	Total memory requirement for DF+CC int:  26064.98 MB 
	Memory requirement for Wabef term     :  20227.74 MB 

	Computing DF-MP2 energy ... 
	======================================================================= 
	Nuclear Repulsion Energy (a.u.)    :   404.72356374060411
	DF-HF Energy (a.u.)                :  -313.53941897295994
	REF Energy (a.u.)                  :  -313.53941897295994
	DF-MP2 Correlation Energy (a.u.)   :    -1.44452511675502
	DF-MP2 Total Energy (a.u.)         :  -314.98394408971495
	======================================================================= 

	======================================================================= 
	================ MP2.5 FINAL RESULTS ================================== 
	======================================================================= 
	Nuclear Repulsion Energy (a.u.)    :   404.72356374060411
	SCF Energy (a.u.)                  :  -313.53941897295994
	REF Energy (a.u.)                  :  -313.53941897295994
	DF-MP3 Correlation Energy (a.u.)   :    -1.53029518831022
	DF-MP3 Total Energy (a.u.)         :  -315.06971416127016
	DF-MP2.5 Correlation Energy (a.u.) :    -1.48741015253262
	DF-MP2.5 Total Energy (a.u.)       :  -315.02682912549255
	======================================================================= 


*** tstop() called on wr38 at Sun Sep 25 11:59:16 2016
Module time:
	user time   =   38472.93 seconds =     641.22 minutes
	system time =    1925.65 seconds =      32.09 minutes
	total time  =      10510 seconds =     175.17 minutes
Total time:
	user time   =   39099.17 seconds =     651.65 minutes
	system time =    1936.23 seconds =      32.27 minutes
	total time  =      11169 seconds =     186.15 minutes

*** Psi4 exiting successfully. Buy a developer a beer!
