    -----------------------------------------------------------------------
          Psi4: An Open-Source Ab Initio Electronic Structure Package
                              Psi4 1.0.0 Driver

                          Git: Rev {master} 6a9a71b dirty

    J. M. Turney, A. C. Simmonett, R. M. Parrish, E. G. Hohenstein,
    F. A. Evangelista, J. T. Fermann, B. J. Mintz, L. A. Burns, J. J. Wilke,
    M. L. Abrams, N. J. Russ, M. L. Leininger, C. L. Janssen, E. T. Seidl,
    W. D. Allen, H. F. Schaefer, R. A. King, E. F. Valeev, C. D. Sherrill,
    and T. D. Crawford, WIREs Comput. Mol. Sci. 2, 556-565 (2012)
    (doi: 10.1002/wcms.93)

                         Additional Contributions by
    A. E. DePrince, U. Bozkaya, A. Yu. Sokolov, D. G. A. Smith, R. Di Remigio,
    R. M. Richard, J. F. Gonthier, H. R. McAlexander, M. Saitow, and
    B. P. Pritchard
    -----------------------------------------------------------------------


    Psi4 started on: Sun Sep 25 08:53:06 2016

    Process ID:  18504
    PSI4DATADIR: /usr/local/hpc5/psi4conda/share/psi4
    Memory level set to 256.000 MB

  ==> Input File <==

--------------------------------------------------------------------------
memory 40 Gb

molecule molecule_08_psi {
0 1
    C            3.501552120309     0.741730541303     0.121004586240
    H            3.160866879194     1.739176804326     0.402295927168
    H            4.252160691280     0.852460392640    -0.661202334329
    H            3.986251571990     0.299388339954     0.992224876471
    C           -3.312882768088    -0.001834640952     0.420115319232
    H           -3.021804059632    -1.042389644893     0.562507410396
    H           -3.880641450967     0.060225209706    -0.509923920239
    H           -3.979681033624     0.269075325649     1.238364556682
    C            2.329648634031    -0.116503385443    -0.339735231797
    H            2.687713178253    -1.107583607785    -0.633348000346
    H            1.883285787527     0.328607948869    -1.231692169180
    C           -2.097477577630     0.917593477858     0.372318998849
    H           -2.432217459164     1.956604964794     0.333201028463
    H           -1.526057303990     0.816374444624     1.298052285972
    C            1.271530637922    -0.269408118843     0.746660434884
    H            0.881167374458     0.719337545654     1.005667388544
    H            1.750483641911    -0.653074110998     1.652385089609
    C            0.123632409266    -1.201421630135     0.362186165053
    H           -0.571461352248    -1.278198196549     1.202490125462
    H            0.523420909008    -2.207387862231     0.204621193299
    C           -0.638295132379    -0.773692921014    -0.892988593935
    H            0.015291300111    -0.858685588182    -1.764235538964
    H           -1.456960998559    -1.476458116323    -1.064851536593
    C           -1.190882477139     0.650512377085    -0.828532961443
    H           -0.361902976772     1.363214138292    -0.817037621346
    H           -1.753052307529     0.850663270305    -1.745494371783
}

set globals {
  reference rhf
  basis aug-cc-pvtz
  scf_type df
  mp_type df
  freeze_core true
}
energy('mp2.5')
--------------------------------------------------------------------------
/usr/local/hpc5/psi4conda/lib/python2.7/site-packages/v2rdm_casscf/v2rdm_casscf.so loaded.

  Memory set to  40.000 GiB by Python script.

*** tstart() called on wr39
*** at Sun Sep 25 08:53:07 2016


         ---------------------------------------------------------
                                   SCF
            by Justin Turney, Rob Parrish, and Andy Simmonett
                              RHF Reference
                       12 Threads,  40000 MiB Core
         ---------------------------------------------------------

  ==> Geometry <==

    Molecular point group: c1
    Full point group: C1

    Geometry (in Angstrom), charge = 0, multiplicity = 1:

       Center              X                  Y                   Z               Mass       
    ------------   -----------------  -----------------  -----------------  -----------------
           C          3.501552120309     0.741730541303     0.121004586240    12.000000000000
           H          3.160866879194     1.739176804326     0.402295927168     1.007825032070
           H          4.252160691280     0.852460392640    -0.661202334329     1.007825032070
           H          3.986251571990     0.299388339954     0.992224876471     1.007825032070
           C         -3.312882768088    -0.001834640952     0.420115319232    12.000000000000
           H         -3.021804059632    -1.042389644893     0.562507410396     1.007825032070
           H         -3.880641450967     0.060225209706    -0.509923920239     1.007825032070
           H         -3.979681033624     0.269075325649     1.238364556682     1.007825032070
           C          2.329648634031    -0.116503385443    -0.339735231797    12.000000000000
           H          2.687713178253    -1.107583607785    -0.633348000346     1.007825032070
           H          1.883285787527     0.328607948869    -1.231692169180     1.007825032070
           C         -2.097477577630     0.917593477858     0.372318998849    12.000000000000
           H         -2.432217459164     1.956604964794     0.333201028463     1.007825032070
           H         -1.526057303990     0.816374444624     1.298052285972     1.007825032070
           C          1.271530637922    -0.269408118843     0.746660434884    12.000000000000
           H          0.881167374458     0.719337545654     1.005667388544     1.007825032070
           H          1.750483641911    -0.653074110998     1.652385089609     1.007825032070
           C          0.123632409266    -1.201421630135     0.362186165053    12.000000000000
           H         -0.571461352248    -1.278198196549     1.202490125462     1.007825032070
           H          0.523420909008    -2.207387862231     0.204621193299     1.007825032070
           C         -0.638295132379    -0.773692921014    -0.892988593935    12.000000000000
           H          0.015291300111    -0.858685588182    -1.764235538964     1.007825032070
           H         -1.456960998559    -1.476458116323    -1.064851536593     1.007825032070
           C         -1.190882477139     0.650512377085    -0.828532961443    12.000000000000
           H         -0.361902976772     1.363214138292    -0.817037621346     1.007825032070
           H         -1.753052307529     0.850663270305    -1.745494371783     1.007825032070

  Running in c1 symmetry.

  Rotational constants: A =      0.13655  B =      0.02791  C =      0.02705 [cm^-1]
  Rotational constants: A =   4093.54025  B =    836.61379  C =    810.94884 [MHz]
  Nuclear repulsion =  402.721610832382453

  Charge       = 0
  Multiplicity = 1
  Electrons    = 66
  Nalpha       = 33
  Nbeta        = 33

  ==> Algorithm <==

  SCF Algorithm Type is DF.
  DIIS enabled.
  MOM disabled.
  Fractional occupation disabled.
  Guess Type is SAD.
  Energy threshold   = 1.00e-08
  Density threshold  = 1.00e-08
  Integral threshold = 0.00e+00

  ==> Primary Basis <==

  Basis Set: AUG-CC-PVTZ
    Number of shells: 274
    Number of basis function: 782
    Number of Cartesian functions: 890
    Spherical Harmonics?: true
    Max angular momentum: 3

  ==> Pre-Iterations <==

   -------------------------------------------------------
    Irrep   Nso     Nmo     Nalpha   Nbeta   Ndocc  Nsocc
   -------------------------------------------------------
     A        782     782       0       0       0       0
   -------------------------------------------------------
    Total     782     782      33      33      33       0
   -------------------------------------------------------

  ==> Integral Setup <==

  ==> DFJK: Density-Fitted J/K Matrices <==

    J tasked:                  Yes
    K tasked:                  Yes
    wK tasked:                  No
    OpenMP threads:             12
    Integrals threads:          12
    Memory (MB):             28610
    Algorithm:                Core
    Integral Cache:           SAVE
    Schwarz Cutoff:          1E-12
    Fitting Condition:       1E-12

   => Auxiliary Basis Set <=

  Basis Set: 
    Number of shells: 492
    Number of basis function: 1660
    Number of Cartesian functions: 2038
    Spherical Harmonics?: true
    Max angular momentum: 4

  Minimum eigenvalue in the overlap matrix is 1.5966547082E-06.
  Using Symmetric Orthogonalization.
  SCF Guess: Superposition of Atomic Densities via on-the-fly atomic UHF.

  ==> Iterations <==

                           Total Energy        Delta E     RMS |[F,P]|

   @DF-RHF iter   0:  -316.94825092872361   -3.16948e+02   7.00796e-03 
   @DF-RHF iter   1:  -313.29028972066681    3.65796e+00   7.20669e-04 
   @DF-RHF iter   2:  -313.50588889328833   -2.15599e-01   2.67529e-04 DIIS
   @DF-RHF iter   3:  -313.53417046116192   -2.82816e-02   1.01776e-04 DIIS
   @DF-RHF iter   4:  -313.53946266021444   -5.29220e-03   1.66201e-05 DIIS
   @DF-RHF iter   5:  -313.53963306043056   -1.70400e-04   5.47066e-06 DIIS
   @DF-RHF iter   6:  -313.53964869060917   -1.56302e-05   1.36440e-06 DIIS
   @DF-RHF iter   7:  -313.53964980758269   -1.11697e-06   2.73818e-07 DIIS
   @DF-RHF iter   8:  -313.53964986131973   -5.37370e-08   8.36115e-08 DIIS
   @DF-RHF iter   9:  -313.53964986546544   -4.14570e-09   2.37635e-08 DIIS
   @DF-RHF iter  10:  -313.53964986586629   -4.00860e-10   5.95967e-09 DIIS

  ==> Post-Iterations <==

    Orbital Energies (a.u.)
    -----------------------

    Doubly Occupied:                                                      

       1A    -11.212374     2A    -11.212174     3A    -11.210502  
       4A    -11.210344     5A    -11.209719     6A    -11.208964  
       7A    -11.207236     8A    -11.206874     9A     -1.097168  
      10A     -1.057950    11A     -1.005651    12A     -0.946955  
      13A     -0.889264    14A     -0.836562    15A     -0.789699  
      16A     -0.739839    17A     -0.652547    18A     -0.639025  
      19A     -0.611472    20A     -0.581184    21A     -0.577418  
      22A     -0.569798    23A     -0.543899    24A     -0.523977  
      25A     -0.518188    26A     -0.506676    27A     -0.487088  
      28A     -0.474562    29A     -0.468964    30A     -0.462304  
      31A     -0.443214    32A     -0.436892    33A     -0.434461  

    Virtual:                                                              

      34A      0.029958    35A      0.033298    36A      0.033749  
      37A      0.034576    38A      0.045643    39A      0.048917  
      40A      0.050062    41A      0.053317    42A      0.055951  
      43A      0.066733    44A      0.067497    45A      0.071446  
      46A      0.072679    47A      0.079369    48A      0.087201  
      49A      0.091898    50A      0.095149    51A      0.100021  
      52A      0.112804    53A      0.115027    54A      0.117783  
      55A      0.125039    56A      0.127475    57A      0.129973  
      58A      0.134698    59A      0.134725    60A      0.138684  
      61A      0.145407    62A      0.146466    63A      0.149981  
      64A      0.156404    65A      0.160316    66A      0.162919  
      67A      0.164774    68A      0.168305    69A      0.173085  
      70A      0.174477    71A      0.177858    72A      0.181403  
      73A      0.185197    74A      0.190819    75A      0.192559  
      76A      0.199138    77A      0.216205    78A      0.217750  
      79A      0.225414    80A      0.232486    81A      0.240458  
      82A      0.249924    83A      0.256595    84A      0.259714  
      85A      0.268203    86A      0.274639    87A      0.276078  
      88A      0.280120    89A      0.288237    90A      0.290269  
      91A      0.295590    92A      0.307332    93A      0.312731  
      94A      0.314181    95A      0.314854    96A      0.319715  
      97A      0.322617    98A      0.330887    99A      0.333366  
     100A      0.337930   101A      0.343143   102A      0.345532  
     103A      0.348673   104A      0.353016   105A      0.357999  
     106A      0.358774   107A      0.362768   108A      0.366456  
     109A      0.370516   110A      0.371823   111A      0.375359  
     112A      0.379860   113A      0.382147   114A      0.386242  
     115A      0.391141   116A      0.393592   117A      0.406524  
     118A      0.407590   119A      0.409123   120A      0.415010  
     121A      0.418181   122A      0.428866   123A      0.430448  
     124A      0.431297   125A      0.434248   126A      0.439884  
     127A      0.447404   128A      0.451138   129A      0.452087  
     130A      0.453426   131A      0.458260   132A      0.464182  
     133A      0.465790   134A      0.470263   135A      0.471185  
     136A      0.474778   137A      0.480497   138A      0.483067  
     139A      0.486421   140A      0.491171   141A      0.492659  
     142A      0.499170   143A      0.501219   144A      0.504982  
     145A      0.508223   146A      0.514833   147A      0.515511  
     148A      0.519515   149A      0.525960   150A      0.531371  
     151A      0.535684   152A      0.542656   153A      0.545171  
     154A      0.553236   155A      0.554168   156A      0.556885  
     157A      0.562742   158A      0.567324   159A      0.571899  
     160A      0.573838   161A      0.576687   162A      0.581416  
     163A      0.587442   164A      0.591636   165A      0.593594  
     166A      0.601867   167A      0.608832   168A      0.611702  
     169A      0.613210   170A      0.616856   171A      0.627848  
     172A      0.631435   173A      0.636561   174A      0.642865  
     175A      0.645511   176A      0.647836   177A      0.653489  
     178A      0.657749   179A      0.663428   180A      0.671226  
     181A      0.674567   182A      0.684470   183A      0.686347  
     184A      0.692493   185A      0.696144   186A      0.698701  
     187A      0.706518   188A      0.710819   189A      0.718302  
     190A      0.726891   191A      0.731735   192A      0.737580  
     193A      0.745643   194A      0.751427   195A      0.753865  
     196A      0.759977   197A      0.763725   198A      0.766227  
     199A      0.773265   200A      0.789367   201A      0.790285  
     202A      0.807732   203A      0.815535   204A      0.828233  
     205A      0.834094   206A      0.836028   207A      0.841828  
     208A      0.849256   209A      0.859261   210A      0.861411  
     211A      0.870796   212A      0.875878   213A      0.878416  
     214A      0.886082   215A      0.892311   216A      0.896011  
     217A      0.905269   218A      0.910866   219A      0.915064  
     220A      0.917207   221A      0.920960   222A      0.923441  
     223A      0.932471   224A      0.933760   225A      0.940646  
     226A      0.942838   227A      0.947546   228A      0.956550  
     229A      0.960953   230A      0.965681   231A      0.969890  
     232A      0.976252   233A      0.978221   234A      0.981189  
     235A      0.993167   236A      0.996507   237A      0.998914  
     238A      1.001170   239A      1.008622   240A      1.010546  
     241A      1.017166   242A      1.021369   243A      1.027575  
     244A      1.030081   245A      1.036392   246A      1.040840  
     247A      1.049758   248A      1.058715   249A      1.063278  
     250A      1.066703   251A      1.068365   252A      1.073425  
     253A      1.081394   254A      1.087140   255A      1.090095  
     256A      1.093066   257A      1.094634   258A      1.098762  
     259A      1.106529   260A      1.117932   261A      1.120109  
     262A      1.126692   263A      1.130655   264A      1.131923  
     265A      1.139617   266A      1.155044   267A      1.162892  
     268A      1.164473   269A      1.175128   270A      1.177406  
     271A      1.183976   272A      1.186735   273A      1.191948  
     274A      1.197940   275A      1.201993   276A      1.208972  
     277A      1.212339   278A      1.215735   279A      1.219892  
     280A      1.233046   281A      1.233318   282A      1.241749  
     283A      1.247487   284A      1.251448   285A      1.257912  
     286A      1.263381   287A      1.272589   288A      1.276570  
     289A      1.280963   290A      1.291250   291A      1.295519  
     292A      1.301446   293A      1.303294   294A      1.304793  
     295A      1.310427   296A      1.313578   297A      1.319167  
     298A      1.327178   299A      1.328420   300A      1.333474  
     301A      1.340642   302A      1.349180   303A      1.355730  
     304A      1.361347   305A      1.368503   306A      1.369369  
     307A      1.382165   308A      1.387411   309A      1.403266  
     310A      1.406675   311A      1.410755   312A      1.426942  
     313A      1.432039   314A      1.445327   315A      1.450046  
     316A      1.454208   317A      1.473113   318A      1.479222  
     319A      1.483631   320A      1.488355   321A      1.500155  
     322A      1.503012   323A      1.508924   324A      1.517779  
     325A      1.525018   326A      1.527576   327A      1.540704  
     328A      1.545466   329A      1.548569   330A      1.554216  
     331A      1.565840   332A      1.568954   333A      1.577392  
     334A      1.587088   335A      1.595801   336A      1.600228  
     337A      1.609401   338A      1.614021   339A      1.623503  
     340A      1.626526   341A      1.631895   342A      1.639213  
     343A      1.640814   344A      1.654354   345A      1.660293  
     346A      1.665869   347A      1.668764   348A      1.683789  
     349A      1.691314   350A      1.692313   351A      1.700371  
     352A      1.705345   353A      1.706651   354A      1.715318  
     355A      1.722044   356A      1.725299   357A      1.727945  
     358A      1.738816   359A      1.746201   360A      1.757712  
     361A      1.764150   362A      1.768890   363A      1.774445  
     364A      1.777753   365A      1.783954   366A      1.797037  
     367A      1.801416   368A      1.806718   369A      1.808890  
     370A      1.817182   371A      1.829391   372A      1.832441  
     373A      1.835665   374A      1.848527   375A      1.853520  
     376A      1.860408   377A      1.863842   378A      1.869799  
     379A      1.874249   380A      1.884618   381A      1.885618  
     382A      1.890874   383A      1.899462   384A      1.907095  
     385A      1.908615   386A      1.914277   387A      1.924002  
     388A      1.932016   389A      1.934804   390A      1.939150  
     391A      1.952465   392A      1.956293   393A      1.960888  
     394A      1.971923   395A      1.976423   396A      1.984674  
     397A      1.990669   398A      2.000385   399A      2.006136  
     400A      2.012175   401A      2.015599   402A      2.024336  
     403A      2.038122   404A      2.047614   405A      2.050740  
     406A      2.058542   407A      2.067348   408A      2.068514  
     409A      2.074952   410A      2.083426   411A      2.088851  
     412A      2.103758   413A      2.106277   414A      2.110834  
     415A      2.124116   416A      2.126841   417A      2.133858  
     418A      2.138920   419A      2.143236   420A      2.145392  
     421A      2.154728   422A      2.167425   423A      2.175595  
     424A      2.188658   425A      2.196957   426A      2.199179  
     427A      2.206216   428A      2.216612   429A      2.227125  
     430A      2.243278   431A      2.257915   432A      2.258905  
     433A      2.270548   434A      2.281273   435A      2.294590  
     436A      2.296559   437A      2.302617   438A      2.312207  
     439A      2.315913   440A      2.330122   441A      2.336339  
     442A      2.348342   443A      2.362027   444A      2.365328  
     445A      2.372608   446A      2.383829   447A      2.389799  
     448A      2.396746   449A      2.408301   450A      2.418195  
     451A      2.427839   452A      2.431673   453A      2.445257  
     454A      2.460889   455A      2.466287   456A      2.472064  
     457A      2.475450   458A      2.493355   459A      2.500715  
     460A      2.506262   461A      2.521020   462A      2.540071  
     463A      2.542494   464A      2.557279   465A      2.566867  
     466A      2.577817   467A      2.582807   468A      2.596311  
     469A      2.620683   470A      2.630860   471A      2.647784  
     472A      2.654218   473A      2.667391   474A      2.678097  
     475A      2.689337   476A      2.715633   477A      2.728107  
     478A      2.733190   479A      2.741317   480A      2.764037  
     481A      2.771717   482A      2.830632   483A      2.860971  
     484A      2.914240   485A      2.946742   486A      2.954844  
     487A      2.996819   488A      3.030038   489A      3.094663  
     490A      3.112581   491A      3.235815   492A      3.255653  
     493A      3.288872   494A      3.324328   495A      3.328103  
     496A      3.399314   497A      3.416364   498A      3.449054  
     499A      3.453818   500A      3.479870   501A      3.486419  
     502A      3.500100   503A      3.507737   504A      3.516921  
     505A      3.522467   506A      3.547449   507A      3.570632  
     508A      3.574930   509A      3.591092   510A      3.606506  
     511A      3.614141   512A      3.624133   513A      3.632031  
     514A      3.645611   515A      3.650166   516A      3.662437  
     517A      3.665173   518A      3.685280   519A      3.696168  
     520A      3.704805   521A      3.706514   522A      3.718723  
     523A      3.726801   524A      3.746381   525A      3.761695  
     526A      3.768513   527A      3.772427   528A      3.782744  
     529A      3.788128   530A      3.796649   531A      3.803948  
     532A      3.806926   533A      3.823080   534A      3.832903  
     535A      3.843413   536A      3.853226   537A      3.853804  
     538A      3.858606   539A      3.868598   540A      3.883611  
     541A      3.885226   542A      3.888706   543A      3.896189  
     544A      3.907094   545A      3.921694   546A      3.941135  
     547A      3.948879   548A      3.955860   549A      3.966728  
     550A      3.972526   551A      3.980320   552A      3.987957  
     553A      3.993450   554A      3.996573   555A      4.012500  
     556A      4.015814   557A      4.018987   558A      4.026131  
     559A      4.029800   560A      4.036869   561A      4.043134  
     562A      4.050645   563A      4.054386   564A      4.058009  
     565A      4.068605   566A      4.083042   567A      4.085933  
     568A      4.095075   569A      4.100974   570A      4.104528  
     571A      4.127766   572A      4.129052   573A      4.134254  
     574A      4.150015   575A      4.158292   576A      4.159694  
     577A      4.167232   578A      4.172442   579A      4.187013  
     580A      4.196394   581A      4.205736   582A      4.219889  
     583A      4.223269   584A      4.229616   585A      4.230586  
     586A      4.249556   587A      4.254837   588A      4.262296  
     589A      4.265871   590A      4.287579   591A      4.294250  
     592A      4.300466   593A      4.312827   594A      4.319613  
     595A      4.331856   596A      4.337694   597A      4.354122  
     598A      4.360307   599A      4.369487   600A      4.370663  
     601A      4.381704   602A      4.406871   603A      4.409518  
     604A      4.415713   605A      4.432340   606A      4.441902  
     607A      4.452881   608A      4.459126   609A      4.478439  
     610A      4.488844   611A      4.495519   612A      4.515364  
     613A      4.525403   614A      4.531015   615A      4.555603  
     616A      4.558473   617A      4.603810   618A      4.605774  
     619A      4.611270   620A      4.628159   621A      4.650542  
     622A      4.666363   623A      4.679225   624A      4.688471  
     625A      4.693562   626A      4.707054   627A      4.716718  
     628A      4.718738   629A      4.727079   630A      4.732153  
     631A      4.750578   632A      4.761547   633A      4.762307  
     634A      4.781962   635A      4.788305   636A      4.797324  
     637A      4.803031   638A      4.816091   639A      4.829528  
     640A      4.837767   641A      4.841543   642A      4.856456  
     643A      4.869494   644A      4.877190   645A      4.890437  
     646A      4.893960   647A      4.913486   648A      4.921588  
     649A      4.933213   650A      4.955658   651A      4.965407  
     652A      4.968699   653A      4.990697   654A      4.993301  
     655A      5.002704   656A      5.009117   657A      5.021298  
     658A      5.045705   659A      5.062968   660A      5.081290  
     661A      5.090196   662A      5.107987   663A      5.127876  
     664A      5.148820   665A      5.163976   666A      5.176601  
     667A      5.186569   668A      5.194001   669A      5.211125  
     670A      5.217124   671A      5.225267   672A      5.234797  
     673A      5.253979   674A      5.255227   675A      5.260721  
     676A      5.280360   677A      5.286800   678A      5.297246  
     679A      5.302996   680A      5.312143   681A      5.322373  
     682A      5.334949   683A      5.339172   684A      5.358496  
     685A      5.378876   686A      5.383805   687A      5.403633  
     688A      5.406207   689A      5.418160   690A      5.418906  
     691A      5.431845   692A      5.434483   693A      5.448591  
     694A      5.454242   695A      5.459846   696A      5.470877  
     697A      5.474769   698A      5.487335   699A      5.492483  
     700A      5.512520   701A      5.529072   702A      5.542820  
     703A      5.556101   704A      5.578996   705A      5.583777  
     706A      5.611568   707A      5.618826   708A      5.636920  
     709A      5.647534   710A      5.658723   711A      5.668709  
     712A      5.679927   713A      5.692229   714A      5.693693  
     715A      5.697028   716A      5.714673   717A      5.724184  
     718A      5.735200   719A      5.750244   720A      5.757345  
     721A      5.773535   722A      5.783495   723A      5.810985  
     724A      5.824950   725A      5.831961   726A      5.840831  
     727A      5.863325   728A      5.885832   729A      5.894635  
     730A      5.927496   731A      5.945400   732A      5.961413  
     733A      5.982477   734A      5.999944   735A      6.002520  
     736A      6.030149   737A      6.057109   738A      6.065890  
     739A      6.078738   740A      6.123465   741A      6.139989  
     742A      6.159075   743A      6.173550   744A      6.210470  
     745A      6.221125   746A      6.232617   747A      6.240815  
     748A      6.255532   749A      6.290770   750A      6.307187  
     751A      6.312564   752A      6.322077   753A      6.359978  
     754A      6.369977   755A      6.380585   756A      6.397063  
     757A      6.420267   758A      6.438900   759A      6.583453  
     760A      6.612637   761A      6.644598   762A      6.680879  
     763A      6.779418   764A      6.793698   765A      6.815208  
     766A      6.869316   767A      6.882631   768A      6.918372  
     769A      6.964178   770A      7.049449   771A      7.077601  
     772A      7.104978   773A      7.168162   774A      7.187246  
     775A     18.123284   776A     18.163272   777A     18.347926  
     778A     18.435771   779A     18.575680   780A     18.874444  
     781A     19.511908   782A     19.881063  

    Final Occupation by Irrep:
              A 
    DOCC [    33 ]

  Energy converged.

  @DF-RHF Final Energy:  -313.53964986586629

   => Energetics <=

    Nuclear Repulsion Energy =            402.7216108323824528
    One-Electron Energy =               -1220.5766205622508096
    Two-Electron Energy =                 504.3153598640018345
    DFT Exchange-Correlation Energy =       0.0000000000000000
    Empirical Dispersion Energy =           0.0000000000000000
    PCM Polarization Energy =               0.0000000000000000
    EFP Energy =                            0.0000000000000000
    Total Energy =                       -313.5396498658665223


  Saving occupied orbitals to File 180.

*** tstop() called on wr39 at Sun Sep 25 09:04:35 2016
Module time:
	user time   =     551.89 seconds =       9.20 minutes
	system time =      11.41 seconds =       0.19 minutes
	total time  =        688 seconds =      11.47 minutes
Total time:
	user time   =     551.89 seconds =       9.20 minutes
	system time =      11.41 seconds =       0.19 minutes
	total time  =        688 seconds =      11.47 minutes


Properties will be evaluated at   0.000000,   0.000000,   0.000000 Bohr

Properties computed using the SCF density matrix

  Nuclear Dipole Moment: (a.u.)
     X:     0.1471      Y:     0.5919      Z:     0.4350

  Electronic Dipole Moment: (a.u.)
     X:    -0.1496      Y:    -0.5960      Z:    -0.4486

  Dipole Moment: (a.u.)
     X:    -0.0026      Y:    -0.0041      Z:    -0.0136     Total:     0.0144

  Dipole Moment: (Debye)
     X:    -0.0066      Y:    -0.0105      Z:    -0.0345     Total:     0.0367


*** tstart() called on wr39
*** at Sun Sep 25 09:04:35 2016



  Options:
  ----------------------------------------------------------------------------
  ACTIVE                      => [  ]             
  BENCH                       => 0                
  CC_DIIS_MAX_VECS            => 6                
  CC_DIIS_MIN_VECS            => 2                
  CC_LAMBDA                   => FALSE            
  CC_MAXITER                  => 50               
  CC_TYPE                     => CONV             
  CHOLESKY                    => FALSE           !
  CHOLESKY_TOLERANCE          => 0.0001           
  CI_TYPE                     => CONV             
  COMPUT_S2                   => FALSE            
  CUBEPROP_BASIS_FUNCTIONS    => [  ]             
  CUBEPROP_FILEPATH           => .                
  CUBEPROP_ORBITALS           => [  ]             
  CUBEPROP_TASKS              => [  ]             
  CUBIC_BASIS_TOLERANCE       => 1e-12            
  CUBIC_BLOCK_MAX_POINTS      => 1000             
  CUBIC_GRID_OVERAGE          => [  ]             
  CUBIC_GRID_SPACING          => [  ]             
  CUTOFF                      => 8                
  DEBUG                       => 0                
  DERTYPE                     => NONE             
  DF_BASIS_CC                 => (empty)          
  DIE_IF_NOT_CONVERGED        => TRUE             
  DKH_ORDER                   => 2                
  DOCC                        => [  ]             
  DO_DIIS                     => TRUE             
  DO_LEVEL_SHIFT              => TRUE             
  DO_SCS                      => FALSE           !
  DO_SOS                      => FALSE           !
  E3_SCALE                    => 0.25             
  EKT_IP                      => FALSE            
  EXTERNAL_POTENTIAL_SYMMETRY => FALSE            
  E_CONVERGENCE               => 1e-06           !
  FREEZE_CORE                 => TRUE            !
  FROZEN_DOCC                 => [  ]             
  FROZEN_UOCC                 => [  ]             
  HESS_TYPE                   => HF               
  INTEGRAL_CUTOFF             => 9                
  INTEGRAL_PACKAGE            => ERD              
  LEVEL_SHIFT                 => 0.02             
  LINEQ_SOLVER                => CDGESV           
  LITERAL_CFOUR               => (empty)          
  MAT_NUM_COLUMN_PRINT        => 5                
  MAX_MOGRAD_CONVERGENCE      => 0.001            
  MOLDEN_WRITE                => FALSE            
  MO_DIIS_NUM_VECS            => 6                
  MO_MAXITER                  => 50               
  MO_STEP_MAX                 => 0.5              
  MP2_AMP_TYPE                => DIRECT           
  MP2_OS_SCALE                => 1.2              
  MP2_SOS_SCALE               => 1.3              
  MP2_SOS_SCALE2              => 1.2              
  MP2_SS_SCALE                => 0.333333         
  MP2_TYPE                    => DF               
  MP_TYPE                     => DF              !
  NAT_ORBS                    => FALSE            
  NUM_FROZEN_DOCC             => 0                
  NUM_FROZEN_UOCC             => 0                
  OCC_ORBS_PRINT              => FALSE            
  OEPROP                      => FALSE            
  OO_SCALE                    => 0.01             
  OPT_METHOD                  => QNR              
  ORB_OPT                     => FALSE           !
  ORB_RESP_SOLVER             => PCG              
  ORTH_TYPE                   => MGS              
  PCG_BETA_TYPE               => FLETCHER_REEVES  
  PCG_CONVERGENCE             => 1e-06            
  PCG_MAXITER                 => 50               
  PCM                         => FALSE            
  PCM_SCF_TYPE                => TOTAL            
  PPL_TYPE                    => AUTO             
  PRINT                       => 1                
  PRINT_NOONS                 => 3                
  PROPERTIES                  => [  ]             
  PROPERTIES_ORIGIN           => [  ]             
  PUREAM                      => TRUE             
  QCHF                        => FALSE            
  QC_MODULE                   => (empty)          
  RAS1                        => [  ]             
  RAS2                        => [  ]             
  RAS3                        => [  ]             
  RAS4                        => [  ]             
  READ_SCF_3INDEX             => TRUE             
  REGULARIZATION              => FALSE            
  REG_PARAM                   => 0.4              
  RELATIVISTIC                => NO               
  REL_BASIS                   => (empty)          
  RESTRICTED_DOCC             => [  ]             
  RESTRICTED_UOCC             => [  ]             
  RMS_MOGRAD_CONVERGENCE      => 1e-06            
  RUN_CCTRANSORT              => TRUE             
  R_CONVERGENCE               => 1e-05            
  SCS_TYPE                    => SCS              
  SOCC                        => [  ]             
  SOS_TYPE                    => SOS              
  TRIPLES_IABC_TYPE           => DISK             
  UNITS                       => ANGSTROMS        
  WFN                         => SCF              
  WFN_TYPE                    => DF-OMP2.5       !
  WRITER_FILE_LABEL           => (empty)          


 ============================================================================== 
 ============================================================================== 
 ============================================================================== 

                    DF-MP2.5  
              Program Written by Ugur Bozkaya
              Latest Revision April 17, 2016

 ============================================================================== 
 ============================================================================== 
 ============================================================================== 

	MO spaces... 

	 FC   OCC   VIR   FV 
	----------------------
	  8   25   749    0

	Number of basis functions in the DF-CC basis: 1676

	Available memory                      :  38146.97 MB 
	Memory requirement for 3-index ints   :   7420.87 MB 
	Memory requirement for DF-CC int trans:  22482.42 MB 
	Memory requirement for CC contractions:  18644.11 MB 
	Total memory requirement for DF+CC int:  26064.98 MB 
	Memory requirement for Wabef term     :  20227.74 MB 

	Computing DF-MP2 energy ... 
	======================================================================= 
	Nuclear Repulsion Energy (a.u.)    :   402.72161083238245
	DF-HF Energy (a.u.)                :  -313.53964986586629
	REF Energy (a.u.)                  :  -313.53964986586629
	DF-MP2 Correlation Energy (a.u.)   :    -1.44446928442490
	DF-MP2 Total Energy (a.u.)         :  -314.98411915029118
	======================================================================= 

	======================================================================= 
	================ MP2.5 FINAL RESULTS ================================== 
	======================================================================= 
	Nuclear Repulsion Energy (a.u.)    :   402.72161083238245
	SCF Energy (a.u.)                  :  -313.53964986586629
	REF Energy (a.u.)                  :  -313.53964986586629
	DF-MP3 Correlation Energy (a.u.)   :    -1.53013901183607
	DF-MP3 Total Energy (a.u.)         :  -315.06978887770236
	DF-MP2.5 Correlation Energy (a.u.) :    -1.48730414813049
	DF-MP2.5 Total Energy (a.u.)       :  -315.02695401399677
	======================================================================= 


*** tstop() called on wr39 at Sun Sep 25 12:00:46 2016
Module time:
	user time   =   39198.27 seconds =     653.30 minutes
	system time =    1214.09 seconds =      20.23 minutes
	total time  =      10571 seconds =     176.18 minutes
Total time:
	user time   =   39750.29 seconds =     662.50 minutes
	system time =    1225.50 seconds =      20.43 minutes
	total time  =      11259 seconds =     187.65 minutes

*** Psi4 exiting successfully. Buy a developer a beer!
