    -----------------------------------------------------------------------
          Psi4: An Open-Source Ab Initio Electronic Structure Package
                              Psi4 1.0.0 Driver

                          Git: Rev {master} 6a9a71b dirty

    J. M. Turney, A. C. Simmonett, R. M. Parrish, E. G. Hohenstein,
    F. A. Evangelista, J. T. Fermann, B. J. Mintz, L. A. Burns, J. J. Wilke,
    M. L. Abrams, N. J. Russ, M. L. Leininger, C. L. Janssen, E. T. Seidl,
    W. D. Allen, H. F. Schaefer, R. A. King, E. F. Valeev, C. D. Sherrill,
    and T. D. Crawford, WIREs Comput. Mol. Sci. 2, 556-565 (2012)
    (doi: 10.1002/wcms.93)

                         Additional Contributions by
    A. E. DePrince, U. Bozkaya, A. Yu. Sokolov, D. G. A. Smith, R. Di Remigio,
    R. M. Richard, J. F. Gonthier, H. R. McAlexander, M. Saitow, and
    B. P. Pritchard
    -----------------------------------------------------------------------


    Psi4 started on: Sun Sep 25 08:53:06 2016

    Process ID:  31111
    PSI4DATADIR: /usr/local/hpc5/psi4conda/share/psi4
    Memory level set to 256.000 MB

  ==> Input File <==

--------------------------------------------------------------------------
memory 40 Gb

molecule molecule_04_psi {
0 1
    C            4.278345582020    -0.538658701622     0.102600392206
    H            5.220716814110    -0.073512389847    -0.185542366576
    H            4.205268308020    -1.496560543363    -0.413821002816
    H            4.317976498252    -0.741609750931     1.173511504362
    C           -3.672185009403    -1.054566307283    -0.312165779320
    H           -2.966958076823    -1.842899058034    -0.052090512992
    H           -3.670569213981    -0.949842002600    -1.398512854686
    H           -4.664807022939    -1.387509941482    -0.009915524287
    C            3.086142646703     0.348223750229    -0.234588799493
    H            3.075456810334     0.561106643283    -1.306836395660
    H            3.187670777491     1.311970948867     0.271385295951
    C           -3.307494043086     0.267454356177     0.354888876646
    H           -4.093198870748     0.999057431572     0.153807705787
    H           -3.277444849736     0.135192452769     1.439962917325
    C            1.758442460729    -0.285410795304     0.161197170010
    H            1.766567102105    -0.498590978129     1.235050249775
    H            1.654720072109    -1.250841723480    -0.344602796923
    C            0.555402540735     0.588098424729    -0.169628274014
    H            0.546293105166     0.798414966445    -1.243966640401
    H            0.660563268717     1.554500484074     0.333669954773
    C           -0.771861055976    -0.045392339646     0.228800536019
    H           -0.862744187780    -1.015690918174    -0.266139517670
    H           -0.769327931672    -0.243591276069     1.305999737769
    C           -1.969424664287     0.832546116755    -0.116094082968
    H           -1.819056597441     1.820090899406     0.329452024265
    H           -2.003519531334     0.983243334025    -1.200133741929
}

set globals {
  reference rhf
  basis aug-cc-pvtz
  scf_type df
  mp_type df
  freeze_core true
}
energy('mp2.5')
--------------------------------------------------------------------------
/usr/local/hpc5/psi4conda/lib/python2.7/site-packages/v2rdm_casscf/v2rdm_casscf.so loaded.

  Memory set to  40.000 GiB by Python script.

*** tstart() called on wr40
*** at Sun Sep 25 08:53:07 2016


         ---------------------------------------------------------
                                   SCF
            by Justin Turney, Rob Parrish, and Andy Simmonett
                              RHF Reference
                       12 Threads,  40000 MiB Core
         ---------------------------------------------------------

  ==> Geometry <==

    Molecular point group: c1
    Full point group: C1

    Geometry (in Angstrom), charge = 0, multiplicity = 1:

       Center              X                  Y                   Z               Mass       
    ------------   -----------------  -----------------  -----------------  -----------------
           C          4.278345582020    -0.538658701622     0.102600392206    12.000000000000
           H          5.220716814110    -0.073512389847    -0.185542366576     1.007825032070
           H          4.205268308020    -1.496560543363    -0.413821002816     1.007825032070
           H          4.317976498252    -0.741609750931     1.173511504362     1.007825032070
           C         -3.672185009403    -1.054566307283    -0.312165779320    12.000000000000
           H         -2.966958076823    -1.842899058034    -0.052090512992     1.007825032070
           H         -3.670569213981    -0.949842002600    -1.398512854686     1.007825032070
           H         -4.664807022939    -1.387509941482    -0.009915524287     1.007825032070
           C          3.086142646703     0.348223750229    -0.234588799493    12.000000000000
           H          3.075456810334     0.561106643283    -1.306836395660     1.007825032070
           H          3.187670777491     1.311970948867     0.271385295951     1.007825032070
           C         -3.307494043086     0.267454356177     0.354888876646    12.000000000000
           H         -4.093198870748     0.999057431572     0.153807705787     1.007825032070
           H         -3.277444849736     0.135192452769     1.439962917325     1.007825032070
           C          1.758442460729    -0.285410795304     0.161197170010    12.000000000000
           H          1.766567102105    -0.498590978129     1.235050249775     1.007825032070
           H          1.654720072109    -1.250841723480    -0.344602796923     1.007825032070
           C          0.555402540735     0.588098424729    -0.169628274014    12.000000000000
           H          0.546293105166     0.798414966445    -1.243966640401     1.007825032070
           H          0.660563268717     1.554500484074     0.333669954773     1.007825032070
           C         -0.771861055976    -0.045392339646     0.228800536019    12.000000000000
           H         -0.862744187780    -1.015690918174    -0.266139517670     1.007825032070
           H         -0.769327931672    -0.243591276069     1.305999737769     1.007825032070
           C         -1.969424664287     0.832546116755    -0.116094082968    12.000000000000
           H         -1.819056597441     1.820090899406     0.329452024265     1.007825032070
           H         -2.003519531334     0.983243334025    -1.200133741929     1.007825032070

  Running in c1 symmetry.

  Rotational constants: A =      0.22730  B =      0.01849  C =      0.01778 [cm^-1]
  Rotational constants: A =   6814.20967  B =    554.18793  C =    533.12681 [MHz]
  Nuclear repulsion =  380.641480955213581

  Charge       = 0
  Multiplicity = 1
  Electrons    = 66
  Nalpha       = 33
  Nbeta        = 33

  ==> Algorithm <==

  SCF Algorithm Type is DF.
  DIIS enabled.
  MOM disabled.
  Fractional occupation disabled.
  Guess Type is SAD.
  Energy threshold   = 1.00e-08
  Density threshold  = 1.00e-08
  Integral threshold = 0.00e+00

  ==> Primary Basis <==

  Basis Set: AUG-CC-PVTZ
    Number of shells: 274
    Number of basis function: 782
    Number of Cartesian functions: 890
    Spherical Harmonics?: true
    Max angular momentum: 3

  ==> Pre-Iterations <==

   -------------------------------------------------------
    Irrep   Nso     Nmo     Nalpha   Nbeta   Ndocc  Nsocc
   -------------------------------------------------------
     A        782     782       0       0       0       0
   -------------------------------------------------------
    Total     782     782      33      33      33       0
   -------------------------------------------------------

  ==> Integral Setup <==

  ==> DFJK: Density-Fitted J/K Matrices <==

    J tasked:                  Yes
    K tasked:                  Yes
    wK tasked:                  No
    OpenMP threads:             12
    Integrals threads:          12
    Memory (MB):             28610
    Algorithm:                Core
    Integral Cache:           SAVE
    Schwarz Cutoff:          1E-12
    Fitting Condition:       1E-12

   => Auxiliary Basis Set <=

  Basis Set: 
    Number of shells: 492
    Number of basis function: 1660
    Number of Cartesian functions: 2038
    Spherical Harmonics?: true
    Max angular momentum: 4

  Minimum eigenvalue in the overlap matrix is 2.8817039260E-06.
  Using Symmetric Orthogonalization.
  SCF Guess: Superposition of Atomic Densities via on-the-fly atomic UHF.

  ==> Iterations <==

                           Total Energy        Delta E     RMS |[F,P]|

   @DF-RHF iter   0:  -316.65210413022288   -3.16652e+02   6.88658e-03 
   @DF-RHF iter   1:  -313.26473309163333    3.38737e+00   7.71671e-04 
   @DF-RHF iter   2:  -313.50506434653875   -2.40331e-01   2.96947e-04 DIIS
   @DF-RHF iter   3:  -313.53988454009431   -3.48202e-02   1.04512e-04 DIIS
   @DF-RHF iter   4:  -313.54593419906672   -6.04966e-03   1.38922e-05 DIIS
   @DF-RHF iter   5:  -313.54606328705523   -1.29088e-04   4.09748e-06 DIIS
   @DF-RHF iter   6:  -313.54607215422669   -8.86717e-06   1.16729e-06 DIIS
   @DF-RHF iter   7:  -313.54607285457979   -7.00353e-07   2.29436e-07 DIIS
   @DF-RHF iter   8:  -313.54607288593598   -3.13562e-08   6.43253e-08 DIIS
   @DF-RHF iter   9:  -313.54607288810786   -2.17187e-09   1.55981e-08 DIIS
   @DF-RHF iter  10:  -313.54607288825520   -1.47338e-10   4.06749e-09 DIIS

  ==> Post-Iterations <==

    Orbital Energies (a.u.)
    -----------------------

    Doubly Occupied:                                                      

       1A    -11.212757     2A    -11.212367     3A    -11.210374  
       4A    -11.210213     5A    -11.209684     6A    -11.209149  
       7A    -11.206989     8A    -11.206477     9A     -1.093098  
      10A     -1.062361    11A     -1.011467    12A     -0.947168  
      13A     -0.882628    14A     -0.819306    15A     -0.784963  
      16A     -0.771051    17A     -0.654268    18A     -0.623219  
      19A     -0.611470    20A     -0.591897    21A     -0.580840  
      22A     -0.555031    23A     -0.543134    24A     -0.532732  
      25A     -0.510018    26A     -0.495441    27A     -0.487711  
      28A     -0.475868    29A     -0.465027    30A     -0.459487  
      31A     -0.456148    32A     -0.450415    33A     -0.427663  

    Virtual:                                                              

      34A      0.030833    35A      0.031418    36A      0.034755  
      37A      0.036796    38A      0.043858    39A      0.046104  
      40A      0.048398    41A      0.054599    42A      0.060910  
      43A      0.062033    44A      0.066418    45A      0.069986  
      46A      0.072074    47A      0.085447    48A      0.092192  
      49A      0.096947    50A      0.099206    51A      0.099841  
      52A      0.110565    53A      0.113723    54A      0.115327  
      55A      0.122532    56A      0.127257    57A      0.129014  
      58A      0.131135    59A      0.136364    60A      0.143157  
      61A      0.145514    62A      0.146739    63A      0.151668  
      64A      0.158052    65A      0.161640    66A      0.161860  
      67A      0.166611    68A      0.170466    69A      0.173794  
      70A      0.178623    71A      0.179170    72A      0.187735  
      73A      0.194705    74A      0.200399    75A      0.207138  
      76A      0.213941    77A      0.219042    78A      0.225471  
      79A      0.233407    80A      0.236404    81A      0.240947  
      82A      0.248964    83A      0.251159    84A      0.258502  
      85A      0.259616    86A      0.265775    87A      0.270388  
      88A      0.280216    89A      0.282278    90A      0.286627  
      91A      0.288547    92A      0.296735    93A      0.301598  
      94A      0.309185    95A      0.317618    96A      0.320218  
      97A      0.324248    98A      0.331635    99A      0.333797  
     100A      0.338042   101A      0.339888   102A      0.342642  
     103A      0.348554   104A      0.352872   105A      0.359572  
     106A      0.363018   107A      0.363907   108A      0.366315  
     109A      0.368345   110A      0.371506   111A      0.374506  
     112A      0.378757   113A      0.384237   114A      0.387112  
     115A      0.390793   116A      0.392354   117A      0.396983  
     118A      0.398723   119A      0.401354   120A      0.405611  
     121A      0.406817   122A      0.417637   123A      0.419599  
     124A      0.424766   125A      0.431616   126A      0.432960  
     127A      0.435391   128A      0.436759   129A      0.439201  
     130A      0.447189   131A      0.448179   132A      0.453344  
     133A      0.453857   134A      0.457603   135A      0.460437  
     136A      0.465131   137A      0.469302   138A      0.471102  
     139A      0.476506   140A      0.481080   141A      0.486874  
     142A      0.488061   143A      0.491870   144A      0.494415  
     145A      0.497295   146A      0.500758   147A      0.506675  
     148A      0.510906   149A      0.514717   150A      0.519223  
     151A      0.521330   152A      0.523491   153A      0.528171  
     154A      0.530657   155A      0.533792   156A      0.533962  
     157A      0.540412   158A      0.547469   159A      0.549892  
     160A      0.557928   161A      0.563008   162A      0.563424  
     163A      0.572005   164A      0.577358   165A      0.578084  
     166A      0.586234   167A      0.590371   168A      0.595966  
     169A      0.599725   170A      0.607202   171A      0.609270  
     172A      0.614689   173A      0.619215   174A      0.622656  
     175A      0.627566   176A      0.632839   177A      0.640095  
     178A      0.644671   179A      0.651888   180A      0.654225  
     181A      0.661399   182A      0.667141   183A      0.676820  
     184A      0.686716   185A      0.689391   186A      0.694494  
     187A      0.697561   188A      0.709045   189A      0.714361  
     190A      0.716931   191A      0.717683   192A      0.725013  
     193A      0.735247   194A      0.739818   195A      0.750602  
     196A      0.761461   197A      0.767065   198A      0.780923  
     199A      0.787557   200A      0.798555   201A      0.805066  
     202A      0.820711   203A      0.827321   204A      0.829549  
     205A      0.833245   206A      0.837494   207A      0.842156  
     208A      0.846931   209A      0.850760   210A      0.856952  
     211A      0.862508   212A      0.868163   213A      0.873179  
     214A      0.877258   215A      0.882547   216A      0.888334  
     217A      0.890797   218A      0.893356   219A      0.896025  
     220A      0.897833   221A      0.904187   222A      0.910830  
     223A      0.919083   224A      0.920658   225A      0.924514  
     226A      0.927037   227A      0.932231   228A      0.933822  
     229A      0.937841   230A      0.947175   231A      0.949980  
     232A      0.954378   233A      0.955909   234A      0.965075  
     235A      0.968436   236A      0.975120   237A      0.980196  
     238A      0.984344   239A      0.993304   240A      0.997430  
     241A      1.000467   242A      1.008174   243A      1.010207  
     244A      1.015801   245A      1.022009   246A      1.027184  
     247A      1.030858   248A      1.035355   249A      1.039803  
     250A      1.043939   251A      1.046644   252A      1.056733  
     253A      1.059986   254A      1.072468   255A      1.073766  
     256A      1.083626   257A      1.092155   258A      1.094389  
     259A      1.100067   260A      1.106839   261A      1.110904  
     262A      1.116336   263A      1.120842   264A      1.131357  
     265A      1.133598   266A      1.138620   267A      1.143642  
     268A      1.153687   269A      1.156600   270A      1.160122  
     271A      1.164840   272A      1.172964   273A      1.177267  
     274A      1.177733   275A      1.183555   276A      1.186213  
     277A      1.193007   278A      1.197010   279A      1.199751  
     280A      1.203270   281A      1.207190   282A      1.212010  
     283A      1.218704   284A      1.226048   285A      1.229503  
     286A      1.233000   287A      1.241042   288A      1.245167  
     289A      1.248946   290A      1.256503   291A      1.257187  
     292A      1.262726   293A      1.270183   294A      1.273117  
     295A      1.281782   296A      1.288842   297A      1.297953  
     298A      1.300035   299A      1.304560   300A      1.308351  
     301A      1.315823   302A      1.322091   303A      1.328804  
     304A      1.334324   305A      1.339293   306A      1.341811  
     307A      1.352712   308A      1.355798   309A      1.363820  
     310A      1.370055   311A      1.377192   312A      1.386603  
     313A      1.397800   314A      1.405522   315A      1.407843  
     316A      1.415113   317A      1.431784   318A      1.440028  
     319A      1.444872   320A      1.447902   321A      1.455714  
     322A      1.466235   323A      1.479579   324A      1.482298  
     325A      1.487060   326A      1.491922   327A      1.512760  
     328A      1.523407   329A      1.533070   330A      1.536338  
     331A      1.541804   332A      1.550956   333A      1.562715  
     334A      1.565821   335A      1.572092   336A      1.574959  
     337A      1.590622   338A      1.591591   339A      1.598760  
     340A      1.605663   341A      1.613573   342A      1.616118  
     343A      1.626587   344A      1.634185   345A      1.635865  
     346A      1.644800   347A      1.648301   348A      1.662067  
     349A      1.671960   350A      1.674417   351A      1.675896  
     352A      1.684188   353A      1.684745   354A      1.690125  
     355A      1.698842   356A      1.705232   357A      1.708858  
     358A      1.714421   359A      1.720725   360A      1.724004  
     361A      1.736057   362A      1.737068   363A      1.747589  
     364A      1.748606   365A      1.752819   366A      1.759196  
     367A      1.764422   368A      1.766870   369A      1.772936  
     370A      1.778293   371A      1.783575   372A      1.786633  
     373A      1.788895   374A      1.791903   375A      1.805689  
     376A      1.811371   377A      1.815701   378A      1.823432  
     379A      1.825551   380A      1.836883   381A      1.845484  
     382A      1.852449   383A      1.855123   384A      1.858655  
     385A      1.863939   386A      1.871163   387A      1.874017  
     388A      1.881565   389A      1.889372   390A      1.896687  
     391A      1.900314   392A      1.903749   393A      1.910932  
     394A      1.921958   395A      1.931271   396A      1.936785  
     397A      1.948598   398A      1.957164   399A      1.958220  
     400A      1.977489   401A      1.982695   402A      1.986502  
     403A      1.991423   404A      1.998709   405A      2.003517  
     406A      2.005525   407A      2.018949   408A      2.025281  
     409A      2.029162   410A      2.034776   411A      2.038500  
     412A      2.039983   413A      2.051295   414A      2.060401  
     415A      2.062467   416A      2.066139   417A      2.083880  
     418A      2.085662   419A      2.099089   420A      2.109941  
     421A      2.123659   422A      2.127785   423A      2.135540  
     424A      2.136733   425A      2.150270   426A      2.169096  
     427A      2.179656   428A      2.182206   429A      2.200419  
     430A      2.206229   431A      2.220998   432A      2.223891  
     433A      2.241280   434A      2.253075   435A      2.257778  
     436A      2.263263   437A      2.268763   438A      2.277796  
     439A      2.280808   440A      2.284921   441A      2.299469  
     442A      2.302647   443A      2.309227   444A      2.316112  
     445A      2.331505   446A      2.339314   447A      2.347559  
     448A      2.350967   449A      2.360131   450A      2.364266  
     451A      2.373031   452A      2.381977   453A      2.396766  
     454A      2.406047   455A      2.420501   456A      2.431114  
     457A      2.443105   458A      2.458883   459A      2.460060  
     460A      2.475333   461A      2.480015   462A      2.485340  
     463A      2.495177   464A      2.496749   465A      2.510596  
     466A      2.540276   467A      2.550252   468A      2.557730  
     469A      2.573740   470A      2.583520   471A      2.586465  
     472A      2.622307   473A      2.630853   474A      2.635453  
     475A      2.651084   476A      2.672189   477A      2.681164  
     478A      2.692419   479A      2.717197   480A      2.764293  
     481A      2.776876   482A      2.850795   483A      2.873555  
     484A      2.934723   485A      2.943087   486A      2.972561  
     487A      2.993897   488A      3.007916   489A      3.023418  
     490A      3.069764   491A      3.130683   492A      3.155786  
     493A      3.229413   494A      3.284612   495A      3.304823  
     496A      3.381845   497A      3.393563   498A      3.433013  
     499A      3.442214   500A      3.449315   501A      3.456428  
     502A      3.489125   503A      3.510418   504A      3.512156  
     505A      3.514726   506A      3.538294   507A      3.538738  
     508A      3.555935   509A      3.571158   510A      3.576153  
     511A      3.577172   512A      3.596593   513A      3.598679  
     514A      3.613759   515A      3.630440   516A      3.639874  
     517A      3.645340   518A      3.663434   519A      3.665126  
     520A      3.676380   521A      3.681920   522A      3.692580  
     523A      3.700746   524A      3.708232   525A      3.713844  
     526A      3.737838   527A      3.743878   528A      3.747991  
     529A      3.754459   530A      3.760904   531A      3.770370  
     532A      3.778213   533A      3.785260   534A      3.801599  
     535A      3.802329   536A      3.807115   537A      3.818624  
     538A      3.825349   539A      3.841129   540A      3.853401  
     541A      3.856784   542A      3.865757   543A      3.868419  
     544A      3.870801   545A      3.876305   546A      3.883729  
     547A      3.890053   548A      3.904560   549A      3.914442  
     550A      3.916422   551A      3.924593   552A      3.936714  
     553A      3.946581   554A      3.954918   555A      3.960829  
     556A      3.961358   557A      3.969324   558A      3.979138  
     559A      3.991383   560A      3.994262   561A      4.006055  
     562A      4.006249   563A      4.009569   564A      4.017932  
     565A      4.027937   566A      4.030374   567A      4.042263  
     568A      4.047552   569A      4.055492   570A      4.063983  
     571A      4.074820   572A      4.082261   573A      4.086861  
     574A      4.091012   575A      4.096603   576A      4.103549  
     577A      4.119086   578A      4.130264   579A      4.138776  
     580A      4.158349   581A      4.169274   582A      4.191186  
     583A      4.196563   584A      4.203584   585A      4.211170  
     586A      4.226064   587A      4.228527   588A      4.239472  
     589A      4.242091   590A      4.250601   591A      4.263512  
     592A      4.275839   593A      4.281848   594A      4.287556  
     595A      4.295182   596A      4.316010   597A      4.328231  
     598A      4.336839   599A      4.347614   600A      4.354691  
     601A      4.362968   602A      4.380763   603A      4.396186  
     604A      4.404379   605A      4.409052   606A      4.415351  
     607A      4.428576   608A      4.441254   609A      4.450239  
     610A      4.461162   611A      4.493632   612A      4.503475  
     613A      4.527393   614A      4.539195   615A      4.543330  
     616A      4.555512   617A      4.575445   618A      4.578647  
     619A      4.601005   620A      4.607949   621A      4.618951  
     622A      4.634038   623A      4.642990   624A      4.652942  
     625A      4.673875   626A      4.685058   627A      4.700300  
     628A      4.701670   629A      4.709650   630A      4.724879  
     631A      4.733685   632A      4.744557   633A      4.751772  
     634A      4.761643   635A      4.769468   636A      4.787053  
     637A      4.794683   638A      4.799853   639A      4.817022  
     640A      4.823697   641A      4.828607   642A      4.840982  
     643A      4.859494   644A      4.869356   645A      4.880604  
     646A      4.884584   647A      4.894088   648A      4.898679  
     649A      4.905005   650A      4.923842   651A      4.929187  
     652A      4.952258   653A      4.960500   654A      4.961995  
     655A      4.978241   656A      4.984552   657A      5.004212  
     658A      5.020018   659A      5.022473   660A      5.031479  
     661A      5.045943   662A      5.057333   663A      5.075880  
     664A      5.094946   665A      5.109137   666A      5.121907  
     667A      5.134434   668A      5.142384   669A      5.159125  
     670A      5.160644   671A      5.167264   672A      5.191559  
     673A      5.213871   674A      5.222486   675A      5.222901  
     676A      5.229110   677A      5.250975   678A      5.264710  
     679A      5.269751   680A      5.282938   681A      5.296099  
     682A      5.304611   683A      5.315962   684A      5.323633  
     685A      5.337123   686A      5.340663   687A      5.362026  
     688A      5.369697   689A      5.377246   690A      5.394979  
     691A      5.403411   692A      5.416744   693A      5.422298  
     694A      5.429230   695A      5.438047   696A      5.444786  
     697A      5.454357   698A      5.467860   699A      5.486133  
     700A      5.495305   701A      5.495948   702A      5.514317  
     703A      5.533481   704A      5.541869   705A      5.550108  
     706A      5.557770   707A      5.585890   708A      5.592575  
     709A      5.604037   710A      5.609880   711A      5.616458  
     712A      5.632693   713A      5.647464   714A      5.656979  
     715A      5.661219   716A      5.683643   717A      5.688678  
     718A      5.709919   719A      5.721258   720A      5.740177  
     721A      5.756623   722A      5.766624   723A      5.775033  
     724A      5.808023   725A      5.813534   726A      5.825926  
     727A      5.850071   728A      5.867761   729A      5.879746  
     730A      5.892864   731A      5.902943   732A      5.939600  
     733A      5.963321   734A      5.980742   735A      5.985180  
     736A      6.004889   737A      6.027791   738A      6.042712  
     739A      6.057144   740A      6.100905   741A      6.121502  
     742A      6.152954   743A      6.171240   744A      6.177200  
     745A      6.198330   746A      6.212249   747A      6.231152  
     748A      6.237439   749A      6.248414   750A      6.274890  
     751A      6.294369   752A      6.302005   753A      6.307481  
     754A      6.315252   755A      6.333515   756A      6.347714  
     757A      6.401566   758A      6.429546   759A      6.507614  
     760A      6.562816   761A      6.612950   762A      6.633279  
     763A      6.711393   764A      6.733724   765A      6.764521  
     766A      6.797770   767A      6.820687   768A      6.856539  
     769A      6.867343   770A      6.897510   771A      6.926720  
     772A      6.982940   773A      7.033424   774A      7.131355  
     775A     17.800051   776A     17.949606   777A     18.155060  
     778A     18.461985   779A     18.488819   780A     18.600330  
     781A     19.077041   782A     19.588712  

    Final Occupation by Irrep:
              A 
    DOCC [    33 ]

  Energy converged.

  @DF-RHF Final Energy:  -313.54607288825520

   => Energetics <=

    Nuclear Repulsion Energy =            380.6414809552135807
    One-Electron Energy =               -1176.4342640543120524
    Two-Electron Energy =                 482.2467102108435029
    DFT Exchange-Correlation Energy =       0.0000000000000000
    Empirical Dispersion Energy =           0.0000000000000000
    PCM Polarization Energy =               0.0000000000000000
    EFP Energy =                            0.0000000000000000
    Total Energy =                       -313.5460728882549120


  Saving occupied orbitals to File 180.

*** tstop() called on wr40 at Sun Sep 25 09:07:45 2016
Module time:
	user time   =     635.81 seconds =      10.60 minutes
	system time =      11.87 seconds =       0.20 minutes
	total time  =        878 seconds =      14.63 minutes
Total time:
	user time   =     635.81 seconds =      10.60 minutes
	system time =      11.87 seconds =       0.20 minutes
	total time  =        878 seconds =      14.63 minutes


Properties will be evaluated at   0.000000,   0.000000,   0.000000 Bohr

Properties computed using the SCF density matrix

  Nuclear Dipole Moment: (a.u.)
     X:     0.4759      Y:    -1.2535      Z:    -0.1675

  Electronic Dipole Moment: (a.u.)
     X:    -0.4909      Y:     1.2863      Z:     0.1723

  Dipole Moment: (a.u.)
     X:    -0.0150      Y:     0.0329      Z:     0.0047     Total:     0.0364

  Dipole Moment: (Debye)
     X:    -0.0381      Y:     0.0836      Z:     0.0120     Total:     0.0926


*** tstart() called on wr40
*** at Sun Sep 25 09:07:45 2016



  Options:
  ----------------------------------------------------------------------------
  ACTIVE                      => [  ]             
  BENCH                       => 0                
  CC_DIIS_MAX_VECS            => 6                
  CC_DIIS_MIN_VECS            => 2                
  CC_LAMBDA                   => FALSE            
  CC_MAXITER                  => 50               
  CC_TYPE                     => CONV             
  CHOLESKY                    => FALSE           !
  CHOLESKY_TOLERANCE          => 0.0001           
  CI_TYPE                     => CONV             
  COMPUT_S2                   => FALSE            
  CUBEPROP_BASIS_FUNCTIONS    => [  ]             
  CUBEPROP_FILEPATH           => .                
  CUBEPROP_ORBITALS           => [  ]             
  CUBEPROP_TASKS              => [  ]             
  CUBIC_BASIS_TOLERANCE       => 1e-12            
  CUBIC_BLOCK_MAX_POINTS      => 1000             
  CUBIC_GRID_OVERAGE          => [  ]             
  CUBIC_GRID_SPACING          => [  ]             
  CUTOFF                      => 8                
  DEBUG                       => 0                
  DERTYPE                     => NONE             
  DF_BASIS_CC                 => (empty)          
  DIE_IF_NOT_CONVERGED        => TRUE             
  DKH_ORDER                   => 2                
  DOCC                        => [  ]             
  DO_DIIS                     => TRUE             
  DO_LEVEL_SHIFT              => TRUE             
  DO_SCS                      => FALSE           !
  DO_SOS                      => FALSE           !
  E3_SCALE                    => 0.25             
  EKT_IP                      => FALSE            
  EXTERNAL_POTENTIAL_SYMMETRY => FALSE            
  E_CONVERGENCE               => 1e-06           !
  FREEZE_CORE                 => TRUE            !
  FROZEN_DOCC                 => [  ]             
  FROZEN_UOCC                 => [  ]             
  HESS_TYPE                   => HF               
  INTEGRAL_CUTOFF             => 9                
  INTEGRAL_PACKAGE            => ERD              
  LEVEL_SHIFT                 => 0.02             
  LINEQ_SOLVER                => CDGESV           
  LITERAL_CFOUR               => (empty)          
  MAT_NUM_COLUMN_PRINT        => 5                
  MAX_MOGRAD_CONVERGENCE      => 0.001            
  MOLDEN_WRITE                => FALSE            
  MO_DIIS_NUM_VECS            => 6                
  MO_MAXITER                  => 50               
  MO_STEP_MAX                 => 0.5              
  MP2_AMP_TYPE                => DIRECT           
  MP2_OS_SCALE                => 1.2              
  MP2_SOS_SCALE               => 1.3              
  MP2_SOS_SCALE2              => 1.2              
  MP2_SS_SCALE                => 0.333333         
  MP2_TYPE                    => DF               
  MP_TYPE                     => DF              !
  NAT_ORBS                    => FALSE            
  NUM_FROZEN_DOCC             => 0                
  NUM_FROZEN_UOCC             => 0                
  OCC_ORBS_PRINT              => FALSE            
  OEPROP                      => FALSE            
  OO_SCALE                    => 0.01             
  OPT_METHOD                  => QNR              
  ORB_OPT                     => FALSE           !
  ORB_RESP_SOLVER             => PCG              
  ORTH_TYPE                   => MGS              
  PCG_BETA_TYPE               => FLETCHER_REEVES  
  PCG_CONVERGENCE             => 1e-06            
  PCG_MAXITER                 => 50               
  PCM                         => FALSE            
  PCM_SCF_TYPE                => TOTAL            
  PPL_TYPE                    => AUTO             
  PRINT                       => 1                
  PRINT_NOONS                 => 3                
  PROPERTIES                  => [  ]             
  PROPERTIES_ORIGIN           => [  ]             
  PUREAM                      => TRUE             
  QCHF                        => FALSE            
  QC_MODULE                   => (empty)          
  RAS1                        => [  ]             
  RAS2                        => [  ]             
  RAS3                        => [  ]             
  RAS4                        => [  ]             
  READ_SCF_3INDEX             => TRUE             
  REGULARIZATION              => FALSE            
  REG_PARAM                   => 0.4              
  RELATIVISTIC                => NO               
  REL_BASIS                   => (empty)          
  RESTRICTED_DOCC             => [  ]             
  RESTRICTED_UOCC             => [  ]             
  RMS_MOGRAD_CONVERGENCE      => 1e-06            
  RUN_CCTRANSORT              => TRUE             
  R_CONVERGENCE               => 1e-05            
  SCS_TYPE                    => SCS              
  SOCC                        => [  ]             
  SOS_TYPE                    => SOS              
  TRIPLES_IABC_TYPE           => DISK             
  UNITS                       => ANGSTROMS        
  WFN                         => SCF              
  WFN_TYPE                    => DF-OMP2.5       !
  WRITER_FILE_LABEL           => (empty)          


 ============================================================================== 
 ============================================================================== 
 ============================================================================== 

                    DF-MP2.5  
              Program Written by Ugur Bozkaya
              Latest Revision April 17, 2016

 ============================================================================== 
 ============================================================================== 
 ============================================================================== 

	MO spaces... 

	 FC   OCC   VIR   FV 
	----------------------
	  8   25   749    0

	Number of basis functions in the DF-CC basis: 1676

	Available memory                      :  38146.97 MB 
	Memory requirement for 3-index ints   :   7420.87 MB 
	Memory requirement for DF-CC int trans:  22482.42 MB 
	Memory requirement for CC contractions:  18644.11 MB 
	Total memory requirement for DF+CC int:  26064.98 MB 
	Memory requirement for Wabef term     :  20227.74 MB 

	Computing DF-MP2 energy ... 
	======================================================================= 
	Nuclear Repulsion Energy (a.u.)    :   380.64148095521358
	DF-HF Energy (a.u.)                :  -313.54607288825520
	REF Energy (a.u.)                  :  -313.54607288825520
	DF-MP2 Correlation Energy (a.u.)   :    -1.43835996737091
	DF-MP2 Total Energy (a.u.)         :  -314.98443285562610
	======================================================================= 

	======================================================================= 
	================ MP2.5 FINAL RESULTS ================================== 
	======================================================================= 
	Nuclear Repulsion Energy (a.u.)    :   380.64148095521358
	SCF Energy (a.u.)                  :  -313.54607288825520
	REF Energy (a.u.)                  :  -313.54607288825520
	DF-MP3 Correlation Energy (a.u.)   :    -1.52544497848152
	DF-MP3 Total Energy (a.u.)         :  -315.07151786673671
	DF-MP2.5 Correlation Energy (a.u.) :    -1.48190247292620
	DF-MP2.5 Total Energy (a.u.)       :  -315.02797536118140
	======================================================================= 


*** tstop() called on wr40 at Sun Sep 25 11:46:25 2016
Module time:
	user time   =   37583.65 seconds =     626.39 minutes
	system time =     699.85 seconds =      11.66 minutes
	total time  =       9520 seconds =     158.67 minutes
Total time:
	user time   =   38219.55 seconds =     636.99 minutes
	system time =     711.72 seconds =      11.86 minutes
	total time  =      10398 seconds =     173.30 minutes

*** Psi4 exiting successfully. Buy a developer a beer!
