    -----------------------------------------------------------------------
          Psi4: An Open-Source Ab Initio Electronic Structure Package
                              Psi4 1.0.0 Driver

                          Git: Rev {master} 6a9a71b dirty

    J. M. Turney, A. C. Simmonett, R. M. Parrish, E. G. Hohenstein,
    F. A. Evangelista, J. T. Fermann, B. J. Mintz, L. A. Burns, J. J. Wilke,
    M. L. Abrams, N. J. Russ, M. L. Leininger, C. L. Janssen, E. T. Seidl,
    W. D. Allen, H. F. Schaefer, R. A. King, E. F. Valeev, C. D. Sherrill,
    and T. D. Crawford, WIREs Comput. Mol. Sci. 2, 556-565 (2012)
    (doi: 10.1002/wcms.93)

                         Additional Contributions by
    A. E. DePrince, U. Bozkaya, A. Yu. Sokolov, D. G. A. Smith, R. Di Remigio,
    R. M. Richard, J. F. Gonthier, H. R. McAlexander, M. Saitow, and
    B. P. Pritchard
    -----------------------------------------------------------------------


    Psi4 started on: Sun Sep 25 08:53:06 2016

    Process ID:  31114
    PSI4DATADIR: /usr/local/hpc5/psi4conda/share/psi4
    Memory level set to 256.000 MB

  ==> Input File <==

--------------------------------------------------------------------------
memory 40 Gb

molecule molecule_06_psi {
0 1
    C            2.565460845865    -1.539787923561     0.037197410635
    H            3.147748730095    -2.214748867944    -0.589614489127
    H            1.520004831152    -1.839645263395    -0.037754799055
    H            2.879903346972    -1.687622446602     1.071881616601
    C           -3.748036014908    -0.648008239816     0.144345834738
    H           -4.112383466486    -1.580317014454     0.575069616021
    H           -4.164640825598    -0.555700126836    -0.859417732992
    H           -4.141492443592     0.174307447954     0.743352099648
    C            2.762390773092    -0.088123877985    -0.385165897288
    H            2.405972395989     0.047436478723    -1.408513366185
    H            3.829972892110     0.141923135586    -0.401882474239
    C           -2.225301834000    -0.603462120657     0.103754909601
    H           -1.831904612677    -0.732156879430     1.113916162692
    H           -1.845896478531    -1.441767508550    -0.488178712068
    C            2.063526798434     0.906022772559     0.542243088954
    H            2.236990886890     1.921136216631     0.173594101499
    H            2.526822107281     0.849505190096     1.531691905003
    C            0.558630868251     0.681028713111     0.683407917899
    H            0.147745177496     1.443191616792     1.352797387945
    H            0.377212122199    -0.280224562476     1.168280814599
    C           -0.187100822364     0.743194093234    -0.645712663186
    H            0.099444352746     1.662606436239    -1.165896727914
    H            0.125940671132    -0.085796560817    -1.287387688315
    C           -1.705479948284     0.699915617658    -0.492937202392
    H           -2.031467197783     1.536896864160     0.133361666045
    H           -2.171225644367     0.845675710931    -1.472098965834
}

set globals {
  reference rhf
  basis aug-cc-pvtz
  scf_type df
  mp_type df
  freeze_core true
}
energy('mp2.5')
--------------------------------------------------------------------------
/usr/local/hpc5/psi4conda/lib/python2.7/site-packages/v2rdm_casscf/v2rdm_casscf.so loaded.

  Memory set to  40.000 GiB by Python script.

*** tstart() called on wr40
*** at Sun Sep 25 08:53:07 2016


         ---------------------------------------------------------
                                   SCF
            by Justin Turney, Rob Parrish, and Andy Simmonett
                              RHF Reference
                       12 Threads,  40000 MiB Core
         ---------------------------------------------------------

  ==> Geometry <==

    Molecular point group: c1
    Full point group: C1

    Geometry (in Angstrom), charge = 0, multiplicity = 1:

       Center              X                  Y                   Z               Mass       
    ------------   -----------------  -----------------  -----------------  -----------------
           C          2.565460845865    -1.539787923561     0.037197410635    12.000000000000
           H          3.147748730095    -2.214748867944    -0.589614489127     1.007825032070
           H          1.520004831152    -1.839645263395    -0.037754799055     1.007825032070
           H          2.879903346972    -1.687622446602     1.071881616601     1.007825032070
           C         -3.748036014908    -0.648008239816     0.144345834738    12.000000000000
           H         -4.112383466486    -1.580317014454     0.575069616021     1.007825032070
           H         -4.164640825598    -0.555700126836    -0.859417732992     1.007825032070
           H         -4.141492443592     0.174307447954     0.743352099648     1.007825032070
           C          2.762390773092    -0.088123877985    -0.385165897288    12.000000000000
           H          2.405972395989     0.047436478723    -1.408513366185     1.007825032070
           H          3.829972892110     0.141923135586    -0.401882474239     1.007825032070
           C         -2.225301834000    -0.603462120657     0.103754909601    12.000000000000
           H         -1.831904612677    -0.732156879430     1.113916162692     1.007825032070
           H         -1.845896478531    -1.441767508550    -0.488178712068     1.007825032070
           C          2.063526798434     0.906022772559     0.542243088954    12.000000000000
           H          2.236990886890     1.921136216631     0.173594101499     1.007825032070
           H          2.526822107281     0.849505190096     1.531691905003     1.007825032070
           C          0.558630868251     0.681028713111     0.683407917899    12.000000000000
           H          0.147745177496     1.443191616792     1.352797387945     1.007825032070
           H          0.377212122199    -0.280224562476     1.168280814599     1.007825032070
           C         -0.187100822364     0.743194093234    -0.645712663186    12.000000000000
           H          0.099444352746     1.662606436239    -1.165896727914     1.007825032070
           H          0.125940671132    -0.085796560817    -1.287387688315     1.007825032070
           C         -1.705479948284     0.699915617658    -0.492937202392    12.000000000000
           H         -2.031467197783     1.536896864160     0.133361666045     1.007825032070
           H         -2.171225644367     0.845675710931    -1.472098965834     1.007825032070

  Running in c1 symmetry.

  Rotational constants: A =      0.12790  B =      0.02609  C =      0.02393 [cm^-1]
  Rotational constants: A =   3834.49253  B =    782.16369  C =    717.32888 [MHz]
  Nuclear repulsion =  395.414362725996170

  Charge       = 0
  Multiplicity = 1
  Electrons    = 66
  Nalpha       = 33
  Nbeta        = 33

  ==> Algorithm <==

  SCF Algorithm Type is DF.
  DIIS enabled.
  MOM disabled.
  Fractional occupation disabled.
  Guess Type is SAD.
  Energy threshold   = 1.00e-08
  Density threshold  = 1.00e-08
  Integral threshold = 0.00e+00

  ==> Primary Basis <==

  Basis Set: AUG-CC-PVTZ
    Number of shells: 274
    Number of basis function: 782
    Number of Cartesian functions: 890
    Spherical Harmonics?: true
    Max angular momentum: 3

  ==> Pre-Iterations <==

   -------------------------------------------------------
    Irrep   Nso     Nmo     Nalpha   Nbeta   Ndocc  Nsocc
   -------------------------------------------------------
     A        782     782       0       0       0       0
   -------------------------------------------------------
    Total     782     782      33      33      33       0
   -------------------------------------------------------

  ==> Integral Setup <==

  ==> DFJK: Density-Fitted J/K Matrices <==

    J tasked:                  Yes
    K tasked:                  Yes
    wK tasked:                  No
    OpenMP threads:             12
    Integrals threads:          12
    Memory (MB):             28610
    Algorithm:                Core
    Integral Cache:           SAVE
    Schwarz Cutoff:          1E-12
    Fitting Condition:       1E-12

   => Auxiliary Basis Set <=

  Basis Set: 
    Number of shells: 492
    Number of basis function: 1660
    Number of Cartesian functions: 2038
    Spherical Harmonics?: true
    Max angular momentum: 4

  Minimum eigenvalue in the overlap matrix is 1.7648609158E-06.
  Using Symmetric Orthogonalization.
  SCF Guess: Superposition of Atomic Densities via on-the-fly atomic UHF.

  ==> Iterations <==

                           Total Energy        Delta E     RMS |[F,P]|

   @DF-RHF iter   0:  -316.88837642633632   -3.16888e+02   6.96934e-03 
   @DF-RHF iter   1:  -313.27475307027885    3.61362e+00   7.73130e-04 
   @DF-RHF iter   2:  -313.50210939292094   -2.27356e-01   3.06519e-04 DIIS
   @DF-RHF iter   3:  -313.53600496897684   -3.38956e-02   1.03491e-04 DIIS
   @DF-RHF iter   4:  -313.54159146865743   -5.58650e-03   1.72752e-05 DIIS
   @DF-RHF iter   5:  -313.54177624725185   -1.84779e-04   5.46613e-06 DIIS
   @DF-RHF iter   6:  -313.54179209908955   -1.58518e-05   1.33906e-06 DIIS
   @DF-RHF iter   7:  -313.54179332569981   -1.22661e-06   2.87555e-07 DIIS
   @DF-RHF iter   8:  -313.54179338258211   -5.68823e-08   8.59472e-08 DIIS
   @DF-RHF iter   9:  -313.54179338725771   -4.67560e-09   2.39073e-08 DIIS
   @DF-RHF iter  10:  -313.54179338763970   -3.81988e-10   6.73659e-09 DIIS

  ==> Post-Iterations <==

    Orbital Energies (a.u.)
    -----------------------

    Doubly Occupied:                                                      

       1A    -11.212219     2A    -11.211908     3A    -11.210612  
       4A    -11.210490     5A    -11.209944     6A    -11.208747  
       7A    -11.207063     8A    -11.206863     9A     -1.095237  
      10A     -1.060647    11A     -1.006363    12A     -0.948830  
      13A     -0.881205    14A     -0.836531    15A     -0.788791  
      16A     -0.750495    17A     -0.645354    18A     -0.628647  
      19A     -0.621307    20A     -0.583240    21A     -0.579703  
      22A     -0.564896    23A     -0.541398    24A     -0.529053  
      25A     -0.521574    26A     -0.497580    27A     -0.491856  
      28A     -0.471743    29A     -0.468496    30A     -0.459515  
      31A     -0.445325    32A     -0.437735    33A     -0.436466  

    Virtual:                                                              

      34A      0.030163    35A      0.032527    36A      0.034674  
      37A      0.035290    38A      0.045119    39A      0.048126  
      40A      0.049489    41A      0.053943    42A      0.054706  
      43A      0.067121    44A      0.069281    45A      0.070196  
      46A      0.071711    47A      0.078344    48A      0.086728  
      49A      0.091608    50A      0.098032    51A      0.101376  
      52A      0.115014    53A      0.117504    54A      0.119538  
      55A      0.123698    56A      0.125272    57A      0.129091  
      58A      0.133629    59A      0.135056    60A      0.140477  
      61A      0.146918    62A      0.148539    63A      0.152505  
      64A      0.153991    65A      0.155772    66A      0.160660  
      67A      0.163371    68A      0.166164    69A      0.169798  
      70A      0.174346    71A      0.176485    72A      0.185977  
      73A      0.191480    74A      0.193562    75A      0.197598  
      76A      0.200774    77A      0.217758    78A      0.227807  
      79A      0.228635    80A      0.236667    81A      0.241089  
      82A      0.246950    83A      0.250730    84A      0.257353  
      85A      0.264265    86A      0.270248    87A      0.273449  
      88A      0.279712    89A      0.287372    90A      0.294706  
      91A      0.295805    92A      0.303185    93A      0.306205  
      94A      0.309404    95A      0.318410    96A      0.323012  
      97A      0.323950    98A      0.324818    99A      0.330082  
     100A      0.334684   101A      0.335791   102A      0.342702  
     103A      0.347563   104A      0.350708   105A      0.352156  
     106A      0.357781   107A      0.363408   108A      0.369598  
     109A      0.370306   110A      0.372171   111A      0.375440  
     112A      0.379555   113A      0.385069   114A      0.386557  
     115A      0.391752   116A      0.396583   117A      0.399906  
     118A      0.404465   119A      0.406063   120A      0.410434  
     121A      0.413776   122A      0.419683   123A      0.421960  
     124A      0.426292   125A      0.429653   126A      0.434629  
     127A      0.436108   128A      0.443890   129A      0.445559  
     130A      0.451868   131A      0.454544   132A      0.460823  
     133A      0.466611   134A      0.469460   135A      0.472874  
     136A      0.475460   137A      0.480542   138A      0.482869  
     139A      0.485545   140A      0.488178   141A      0.493140  
     142A      0.493777   143A      0.498953   144A      0.502442  
     145A      0.503997   146A      0.511843   147A      0.512110  
     148A      0.515912   149A      0.523448   150A      0.528601  
     151A      0.531802   152A      0.536325   153A      0.537612  
     154A      0.542120   155A      0.545747   156A      0.549264  
     157A      0.555416   158A      0.558759   159A      0.563054  
     160A      0.568493   161A      0.569871   162A      0.576750  
     163A      0.585785   164A      0.586807   165A      0.589750  
     166A      0.590822   167A      0.600874   168A      0.604365  
     169A      0.611074   170A      0.615309   171A      0.617555  
     172A      0.626810   173A      0.629571   174A      0.633107  
     175A      0.637948   176A      0.644698   177A      0.647563  
     178A      0.655585   179A      0.659863   180A      0.663371  
     181A      0.670607   182A      0.678775   183A      0.680966  
     184A      0.690588   185A      0.692895   186A      0.696832  
     187A      0.703686   188A      0.708376   189A      0.719179  
     190A      0.722448   191A      0.727069   192A      0.734101  
     193A      0.740860   194A      0.744508   195A      0.749974  
     196A      0.757272   197A      0.766656   198A      0.777732  
     199A      0.782717   200A      0.790713   201A      0.792396  
     202A      0.804763   203A      0.816011   204A      0.819418  
     205A      0.829678   206A      0.839150   207A      0.842522  
     208A      0.850501   209A      0.855185   210A      0.860424  
     211A      0.861648   212A      0.870748   213A      0.872870  
     214A      0.877855   215A      0.884345   216A      0.889543  
     217A      0.896196   218A      0.904226   219A      0.905615  
     220A      0.909420   221A      0.919641   222A      0.922445  
     223A      0.929701   224A      0.933933   225A      0.936129  
     226A      0.937912   227A      0.945301   228A      0.946652  
     229A      0.953694   230A      0.959645   231A      0.964408  
     232A      0.969764   233A      0.974973   234A      0.980180  
     235A      0.984446   236A      0.987794   237A      0.998000  
     238A      1.001902   239A      1.004705   240A      1.013348  
     241A      1.015590   242A      1.026712   243A      1.028462  
     244A      1.032117   245A      1.035692   246A      1.040824  
     247A      1.045437   248A      1.050125   249A      1.053375  
     250A      1.059090   251A      1.065709   252A      1.071100  
     253A      1.074358   254A      1.090454   255A      1.092608  
     256A      1.095478   257A      1.100269   258A      1.104199  
     259A      1.113859   260A      1.116429   261A      1.121588  
     262A      1.130865   263A      1.133340   264A      1.139636  
     265A      1.146013   266A      1.149514   267A      1.152958  
     268A      1.157864   269A      1.158217   270A      1.163366  
     271A      1.174429   272A      1.178946   273A      1.182105  
     274A      1.185762   275A      1.192239   276A      1.197864  
     277A      1.206584   278A      1.209073   279A      1.214465  
     280A      1.224891   281A      1.227983   282A      1.230530  
     283A      1.236552   284A      1.239048   285A      1.240921  
     286A      1.252553   287A      1.255083   288A      1.265184  
     289A      1.272762   290A      1.275681   291A      1.282028  
     292A      1.282356   293A      1.291468   294A      1.293495  
     295A      1.301996   296A      1.302967   297A      1.307377  
     298A      1.311120   299A      1.323504   300A      1.330661  
     301A      1.336851   302A      1.341781   303A      1.343791  
     304A      1.351149   305A      1.363161   306A      1.374035  
     307A      1.375103   308A      1.385122   309A      1.389386  
     310A      1.397953   311A      1.409483   312A      1.415152  
     313A      1.421677   314A      1.426354   315A      1.433373  
     316A      1.443876   317A      1.451550   318A      1.455402  
     319A      1.472602   320A      1.483951   321A      1.486318  
     322A      1.487217   323A      1.496996   324A      1.500788  
     325A      1.505589   326A      1.513256   327A      1.518083  
     328A      1.527876   329A      1.539238   330A      1.547322  
     331A      1.555558   332A      1.558586   333A      1.569266  
     334A      1.577973   335A      1.586467   336A      1.593208  
     337A      1.601665   338A      1.605525   339A      1.609439  
     340A      1.620809   341A      1.629739   342A      1.635810  
     343A      1.644592   344A      1.649342   345A      1.655720  
     346A      1.662719   347A      1.668050   348A      1.673855  
     349A      1.677318   350A      1.680345   351A      1.686701  
     352A      1.691209   353A      1.695784   354A      1.706774  
     355A      1.722145   356A      1.723876   357A      1.735137  
     358A      1.738357   359A      1.739184   360A      1.743612  
     361A      1.749613   362A      1.755105   363A      1.763800  
     364A      1.769578   365A      1.771768   366A      1.777145  
     367A      1.785533   368A      1.794591   369A      1.801367  
     370A      1.802217   371A      1.806784   372A      1.812633  
     373A      1.817970   374A      1.827983   375A      1.831042  
     376A      1.836556   377A      1.845525   378A      1.847312  
     379A      1.857593   380A      1.861677   381A      1.868428  
     382A      1.873588   383A      1.877469   384A      1.891915  
     385A      1.898371   386A      1.902676   387A      1.906585  
     388A      1.915808   389A      1.927801   390A      1.931542  
     391A      1.937965   392A      1.942845   393A      1.946194  
     394A      1.962576   395A      1.970170   396A      1.978587  
     397A      1.983694   398A      1.990425   399A      1.998016  
     400A      2.002472   401A      2.008246   402A      2.012959  
     403A      2.018593   404A      2.020661   405A      2.030440  
     406A      2.038398   407A      2.042056   408A      2.053112  
     409A      2.057511   410A      2.064573   411A      2.077172  
     412A      2.088949   413A      2.094120   414A      2.098771  
     415A      2.104821   416A      2.111317   417A      2.119198  
     418A      2.126172   419A      2.130691   420A      2.138944  
     421A      2.143246   422A      2.148192   423A      2.160071  
     424A      2.161780   425A      2.181706   426A      2.191488  
     427A      2.195111   428A      2.196678   429A      2.213126  
     430A      2.217021   431A      2.234804   432A      2.249428  
     433A      2.252750   434A      2.264498   435A      2.271509  
     436A      2.277801   437A      2.284027   438A      2.296993  
     439A      2.302878   440A      2.309685   441A      2.321573  
     442A      2.326103   443A      2.335984   444A      2.339292  
     445A      2.360964   446A      2.376375   447A      2.382153  
     448A      2.384713   449A      2.390258   450A      2.401176  
     451A      2.410152   452A      2.416011   453A      2.426951  
     454A      2.429121   455A      2.446554   456A      2.451987  
     457A      2.469133   458A      2.482400   459A      2.494256  
     460A      2.500959   461A      2.519832   462A      2.534921  
     463A      2.543866   464A      2.549896   465A      2.551288  
     466A      2.562650   467A      2.569592   468A      2.570579  
     469A      2.587550   470A      2.608771   471A      2.616941  
     472A      2.635830   473A      2.656329   474A      2.669436  
     475A      2.687182   476A      2.698948   477A      2.721611  
     478A      2.731095   479A      2.739794   480A      2.756298  
     481A      2.766134   482A      2.779401   483A      2.818899  
     484A      2.862425   485A      2.904482   486A      2.919352  
     487A      3.006689   488A      3.028046   489A      3.031973  
     490A      3.108736   491A      3.174501   492A      3.228362  
     493A      3.274784   494A      3.325684   495A      3.357226  
     496A      3.418159   497A      3.422972   498A      3.459366  
     499A      3.463731   500A      3.484794   501A      3.491103  
     502A      3.500528   503A      3.507388   504A      3.523286  
     505A      3.541038   506A      3.553137   507A      3.560185  
     508A      3.570061   509A      3.570193   510A      3.585915  
     511A      3.597859   512A      3.607433   513A      3.620752  
     514A      3.631529   515A      3.646181   516A      3.661862  
     517A      3.676235   518A      3.681405   519A      3.690659  
     520A      3.696411   521A      3.704379   522A      3.713759  
     523A      3.722780   524A      3.732524   525A      3.750835  
     526A      3.754035   527A      3.761891   528A      3.763979  
     529A      3.774025   530A      3.779300   531A      3.792010  
     532A      3.803903   533A      3.810013   534A      3.817469  
     535A      3.822836   536A      3.826945   537A      3.835034  
     538A      3.854683   539A      3.856390   540A      3.876950  
     541A      3.889096   542A      3.892386   543A      3.896753  
     544A      3.912326   545A      3.919965   546A      3.922216  
     547A      3.929007   548A      3.935937   549A      3.941330  
     550A      3.949974   551A      3.954298   552A      3.962336  
     553A      3.980646   554A      3.980815   555A      3.986101  
     556A      3.996507   557A      4.003828   558A      4.005805  
     559A      4.009697   560A      4.021883   561A      4.032308  
     562A      4.039673   563A      4.042609   564A      4.051309  
     565A      4.054399   566A      4.059459   567A      4.068428  
     568A      4.072214   569A      4.079669   570A      4.097180  
     571A      4.100200   572A      4.103715   573A      4.112369  
     574A      4.129142   575A      4.143434   576A      4.154143  
     577A      4.160400   578A      4.165499   579A      4.175465  
     580A      4.177909   581A      4.195852   582A      4.202834  
     583A      4.219100   584A      4.221347   585A      4.224736  
     586A      4.237095   587A      4.248021   588A      4.258107  
     589A      4.261130   590A      4.268933   591A      4.274092  
     592A      4.287803   593A      4.302751   594A      4.305540  
     595A      4.313231   596A      4.323069   597A      4.338619  
     598A      4.351197   599A      4.369905   600A      4.379044  
     601A      4.382990   602A      4.389516   603A      4.402490  
     604A      4.406439   605A      4.420889   606A      4.434482  
     607A      4.444903   608A      4.461105   609A      4.466642  
     610A      4.476961   611A      4.479552   612A      4.511445  
     613A      4.529276   614A      4.539413   615A      4.565124  
     616A      4.583678   617A      4.593506   618A      4.607513  
     619A      4.626654   620A      4.631820   621A      4.640490  
     622A      4.652735   623A      4.671365   624A      4.678756  
     625A      4.684769   626A      4.695988   627A      4.715240  
     628A      4.722616   629A      4.725613   630A      4.734795  
     631A      4.749337   632A      4.751518   633A      4.756742  
     634A      4.777776   635A      4.789889   636A      4.810895  
     637A      4.816007   638A      4.818643   639A      4.829499  
     640A      4.832609   641A      4.846055   642A      4.852988  
     643A      4.860146   644A      4.879635   645A      4.884725  
     646A      4.886282   647A      4.893655   648A      4.899703  
     649A      4.922027   650A      4.923631   651A      4.942371  
     652A      4.954160   653A      4.971070   654A      4.984514  
     655A      4.997879   656A      5.014801   657A      5.021745  
     658A      5.041227   659A      5.048463   660A      5.063249  
     661A      5.076827   662A      5.089725   663A      5.100771  
     664A      5.119558   665A      5.130454   666A      5.143690  
     667A      5.156239   668A      5.170650   669A      5.175140  
     670A      5.176921   671A      5.205134   672A      5.216207  
     673A      5.226369   674A      5.233768   675A      5.245125  
     676A      5.254062   677A      5.261713   678A      5.290528  
     679A      5.292187   680A      5.310057   681A      5.324730  
     682A      5.327830   683A      5.337261   684A      5.347202  
     685A      5.354007   686A      5.378878   687A      5.382454  
     688A      5.393456   689A      5.402661   690A      5.409483  
     691A      5.421467   692A      5.427346   693A      5.433417  
     694A      5.441954   695A      5.450851   696A      5.468921  
     697A      5.471463   698A      5.483366   699A      5.494673  
     700A      5.508447   701A      5.528857   702A      5.542088  
     703A      5.551591   704A      5.566953   705A      5.579019  
     706A      5.592183   707A      5.606588   708A      5.613750  
     709A      5.634983   710A      5.644114   711A      5.656657  
     712A      5.660690   713A      5.680676   714A      5.698440  
     715A      5.703492   716A      5.712538   717A      5.716698  
     718A      5.725023   719A      5.737535   720A      5.744608  
     721A      5.757947   722A      5.772347   723A      5.789772  
     724A      5.801283   725A      5.810647   726A      5.836443  
     727A      5.850370   728A      5.878192   729A      5.879784  
     730A      5.912218   731A      5.933454   732A      5.960573  
     733A      5.972419   734A      5.985337   735A      5.999508  
     736A      6.029805   737A      6.056835   738A      6.062640  
     739A      6.109609   740A      6.118613   741A      6.142498  
     742A      6.158616   743A      6.171136   744A      6.188162  
     745A      6.219715   746A      6.221052   747A      6.228093  
     748A      6.268332   749A      6.289243   750A      6.294086  
     751A      6.312985   752A      6.328362   753A      6.345401  
     754A      6.351352   755A      6.374650   756A      6.379298  
     757A      6.401868   758A      6.446079   759A      6.579728  
     760A      6.632201   761A      6.673441   762A      6.700094  
     763A      6.733825   764A      6.746285   765A      6.795597  
     766A      6.848437   767A      6.878337   768A      6.899595  
     769A      6.918801   770A      6.968210   771A      7.017716  
     772A      7.071065   773A      7.086731   774A      7.140967  
     775A     17.922983   776A     18.124146   777A     18.241590  
     778A     18.456042   779A     18.596409   780A     18.932989  
     781A     19.344824   782A     19.760960  

    Final Occupation by Irrep:
              A 
    DOCC [    33 ]

  Energy converged.

  @DF-RHF Final Energy:  -313.54179338763970

   => Energetics <=

    Nuclear Repulsion Energy =            395.4143627259961704
    One-Electron Energy =               -1205.9726367782870966
    Two-Electron Energy =                 497.0164806646516240
    DFT Exchange-Correlation Energy =       0.0000000000000000
    Empirical Dispersion Energy =           0.0000000000000000
    PCM Polarization Energy =               0.0000000000000000
    EFP Energy =                            0.0000000000000000
    Total Energy =                       -313.5417933876393022


  Saving occupied orbitals to File 180.

*** tstop() called on wr40 at Sun Sep 25 09:07:46 2016
Module time:
	user time   =     674.21 seconds =      11.24 minutes
	system time =      13.21 seconds =       0.22 minutes
	total time  =        879 seconds =      14.65 minutes
Total time:
	user time   =     674.21 seconds =      11.24 minutes
	system time =      13.21 seconds =       0.22 minutes
	total time  =        879 seconds =      14.65 minutes


Properties will be evaluated at   0.000000,   0.000000,   0.000000 Bohr

Properties computed using the SCF density matrix

  Nuclear Dipole Moment: (a.u.)
     X:    -0.9386      Y:    -1.6830      Z:     0.1436

  Electronic Dipole Moment: (a.u.)
     X:     0.9679      Y:     1.6979      Z:    -0.1486

  Dipole Moment: (a.u.)
     X:     0.0293      Y:     0.0148      Z:    -0.0049     Total:     0.0332

  Dipole Moment: (Debye)
     X:     0.0745      Y:     0.0377      Z:    -0.0125     Total:     0.0844


*** tstart() called on wr40
*** at Sun Sep 25 09:07:46 2016



  Options:
  ----------------------------------------------------------------------------
  ACTIVE                      => [  ]             
  BENCH                       => 0                
  CC_DIIS_MAX_VECS            => 6                
  CC_DIIS_MIN_VECS            => 2                
  CC_LAMBDA                   => FALSE            
  CC_MAXITER                  => 50               
  CC_TYPE                     => CONV             
  CHOLESKY                    => FALSE           !
  CHOLESKY_TOLERANCE          => 0.0001           
  CI_TYPE                     => CONV             
  COMPUT_S2                   => FALSE            
  CUBEPROP_BASIS_FUNCTIONS    => [  ]             
  CUBEPROP_FILEPATH           => .                
  CUBEPROP_ORBITALS           => [  ]             
  CUBEPROP_TASKS              => [  ]             
  CUBIC_BASIS_TOLERANCE       => 1e-12            
  CUBIC_BLOCK_MAX_POINTS      => 1000             
  CUBIC_GRID_OVERAGE          => [  ]             
  CUBIC_GRID_SPACING          => [  ]             
  CUTOFF                      => 8                
  DEBUG                       => 0                
  DERTYPE                     => NONE             
  DF_BASIS_CC                 => (empty)          
  DIE_IF_NOT_CONVERGED        => TRUE             
  DKH_ORDER                   => 2                
  DOCC                        => [  ]             
  DO_DIIS                     => TRUE             
  DO_LEVEL_SHIFT              => TRUE             
  DO_SCS                      => FALSE           !
  DO_SOS                      => FALSE           !
  E3_SCALE                    => 0.25             
  EKT_IP                      => FALSE            
  EXTERNAL_POTENTIAL_SYMMETRY => FALSE            
  E_CONVERGENCE               => 1e-06           !
  FREEZE_CORE                 => TRUE            !
  FROZEN_DOCC                 => [  ]             
  FROZEN_UOCC                 => [  ]             
  HESS_TYPE                   => HF               
  INTEGRAL_CUTOFF             => 9                
  INTEGRAL_PACKAGE            => ERD              
  LEVEL_SHIFT                 => 0.02             
  LINEQ_SOLVER                => CDGESV           
  LITERAL_CFOUR               => (empty)          
  MAT_NUM_COLUMN_PRINT        => 5                
  MAX_MOGRAD_CONVERGENCE      => 0.001            
  MOLDEN_WRITE                => FALSE            
  MO_DIIS_NUM_VECS            => 6                
  MO_MAXITER                  => 50               
  MO_STEP_MAX                 => 0.5              
  MP2_AMP_TYPE                => DIRECT           
  MP2_OS_SCALE                => 1.2              
  MP2_SOS_SCALE               => 1.3              
  MP2_SOS_SCALE2              => 1.2              
  MP2_SS_SCALE                => 0.333333         
  MP2_TYPE                    => DF               
  MP_TYPE                     => DF              !
  NAT_ORBS                    => FALSE            
  NUM_FROZEN_DOCC             => 0                
  NUM_FROZEN_UOCC             => 0                
  OCC_ORBS_PRINT              => FALSE            
  OEPROP                      => FALSE            
  OO_SCALE                    => 0.01             
  OPT_METHOD                  => QNR              
  ORB_OPT                     => FALSE           !
  ORB_RESP_SOLVER             => PCG              
  ORTH_TYPE                   => MGS              
  PCG_BETA_TYPE               => FLETCHER_REEVES  
  PCG_CONVERGENCE             => 1e-06            
  PCG_MAXITER                 => 50               
  PCM                         => FALSE            
  PCM_SCF_TYPE                => TOTAL            
  PPL_TYPE                    => AUTO             
  PRINT                       => 1                
  PRINT_NOONS                 => 3                
  PROPERTIES                  => [  ]             
  PROPERTIES_ORIGIN           => [  ]             
  PUREAM                      => TRUE             
  QCHF                        => FALSE            
  QC_MODULE                   => (empty)          
  RAS1                        => [  ]             
  RAS2                        => [  ]             
  RAS3                        => [  ]             
  RAS4                        => [  ]             
  READ_SCF_3INDEX             => TRUE             
  REGULARIZATION              => FALSE            
  REG_PARAM                   => 0.4              
  RELATIVISTIC                => NO               
  REL_BASIS                   => (empty)          
  RESTRICTED_DOCC             => [  ]             
  RESTRICTED_UOCC             => [  ]             
  RMS_MOGRAD_CONVERGENCE      => 1e-06            
  RUN_CCTRANSORT              => TRUE             
  R_CONVERGENCE               => 1e-05            
  SCS_TYPE                    => SCS              
  SOCC                        => [  ]             
  SOS_TYPE                    => SOS              
  TRIPLES_IABC_TYPE           => DISK             
  UNITS                       => ANGSTROMS        
  WFN                         => SCF              
  WFN_TYPE                    => DF-OMP2.5       !
  WRITER_FILE_LABEL           => (empty)          


 ============================================================================== 
 ============================================================================== 
 ============================================================================== 

                    DF-MP2.5  
              Program Written by Ugur Bozkaya
              Latest Revision April 17, 2016

 ============================================================================== 
 ============================================================================== 
 ============================================================================== 

	MO spaces... 

	 FC   OCC   VIR   FV 
	----------------------
	  8   25   749    0

	Number of basis functions in the DF-CC basis: 1676

	Available memory                      :  38146.97 MB 
	Memory requirement for 3-index ints   :   7420.87 MB 
	Memory requirement for DF-CC int trans:  22482.42 MB 
	Memory requirement for CC contractions:  18644.11 MB 
	Total memory requirement for DF+CC int:  26064.98 MB 
	Memory requirement for Wabef term     :  20227.74 MB 

	Computing DF-MP2 energy ... 
	======================================================================= 
	Nuclear Repulsion Energy (a.u.)    :   395.41436272599617
	DF-HF Energy (a.u.)                :  -313.54179338763970
	REF Energy (a.u.)                  :  -313.54179338763970
	DF-MP2 Correlation Energy (a.u.)   :    -1.44204651852892
	DF-MP2 Total Energy (a.u.)         :  -314.98383990616861
	======================================================================= 

	======================================================================= 
	================ MP2.5 FINAL RESULTS ================================== 
	======================================================================= 
	Nuclear Repulsion Energy (a.u.)    :   395.41436272599617
	SCF Energy (a.u.)                  :  -313.54179338763970
	REF Energy (a.u.)                  :  -313.54179338763970
	DF-MP3 Correlation Energy (a.u.)   :    -1.52831618987199
	DF-MP3 Total Energy (a.u.)         :  -315.07010957751169
	DF-MP2.5 Correlation Energy (a.u.) :    -1.48518135420043
	DF-MP2.5 Total Energy (a.u.)       :  -315.02697474184015
	======================================================================= 


*** tstop() called on wr40 at Sun Sep 25 11:58:07 2016
Module time:
	user time   =   39468.48 seconds =     657.81 minutes
	system time =    1384.35 seconds =      23.07 minutes
	total time  =      10221 seconds =     170.35 minutes
Total time:
	user time   =   40142.78 seconds =     669.05 minutes
	system time =    1397.56 seconds =      23.29 minutes
	total time  =      11100 seconds =     185.00 minutes

*** Psi4 exiting successfully. Buy a developer a beer!
