    -----------------------------------------------------------------------
          Psi4: An Open-Source Ab Initio Electronic Structure Package
                              Psi4 1.0.0 Driver

                          Git: Rev {master} 6a9a71b dirty

    J. M. Turney, A. C. Simmonett, R. M. Parrish, E. G. Hohenstein,
    F. A. Evangelista, J. T. Fermann, B. J. Mintz, L. A. Burns, J. J. Wilke,
    M. L. Abrams, N. J. Russ, M. L. Leininger, C. L. Janssen, E. T. Seidl,
    W. D. Allen, H. F. Schaefer, R. A. King, E. F. Valeev, C. D. Sherrill,
    and T. D. Crawford, WIREs Comput. Mol. Sci. 2, 556-565 (2012)
    (doi: 10.1002/wcms.93)

                         Additional Contributions by
    A. E. DePrince, U. Bozkaya, A. Yu. Sokolov, D. G. A. Smith, R. Di Remigio,
    R. M. Richard, J. F. Gonthier, H. R. McAlexander, M. Saitow, and
    B. P. Pritchard
    -----------------------------------------------------------------------


    Psi4 started on: Sun Sep 25 08:53:06 2016

    Process ID:  18500
    PSI4DATADIR: /usr/local/hpc5/psi4conda/share/psi4
    Memory level set to 256.000 MB

  ==> Input File <==

--------------------------------------------------------------------------
memory 40 Gb

molecule molecule_07_psi {
0 1
    C           -3.808989302880     0.911362787594    -0.179384374409
    H           -4.123335391092     1.891287646693     0.178946538006
    H           -4.514284093820     0.171734897997     0.201570278541
    H           -3.885074629129     0.912087858894    -1.267525723842
    C            3.113343160414     1.451424241567     0.209784444967
    H            4.000056247410     1.989048283131    -0.125232605384
    H            3.105050070584     1.466399425600     1.301032533665
    H            2.241945044657     2.004941185402    -0.137842503124
    C           -2.388043063633     0.579959017297     0.260556962467
    H           -2.324913362481     0.596785773072     1.352517825407
    H           -1.707340018422     1.352272349779    -0.102585861212
    C            3.110718788838     0.016639815818    -0.307199115567
    H            3.080846030911     0.020168861011    -1.400326174338
    H            4.048271100127    -0.467386604800    -0.024786784455
    C           -1.937457290797    -0.787361501976    -0.241723002887
    H           -1.939983334937    -0.786002165556    -1.336765518764
    H           -2.675790476366    -1.533044911876     0.067714630268
    C           -0.558208832254    -1.208821442658     0.258837089478
    H           -0.355749759566    -2.234064914160    -0.064211699939
    H           -0.561288171587    -1.224337828192     1.353699004621
    C            0.575398858686    -0.310840491736    -0.224577609737
    H            0.550353340478    -0.256857536686    -1.318875464176
    H            0.420210753544     0.704965426936     0.142820334720
    C            1.943638860182    -0.814182900086     0.221371386063
    H            1.980164527714    -0.830665926890     1.315737594083
    H            2.060743923456    -1.850563156762    -0.108093250881
}

set globals {
  reference rhf
  basis aug-cc-pvtz
  scf_type df
  mp_type df
  freeze_core true
}
energy('mp2.5')
--------------------------------------------------------------------------
/usr/local/hpc5/psi4conda/lib/python2.7/site-packages/v2rdm_casscf/v2rdm_casscf.so loaded.

  Memory set to  40.000 GiB by Python script.

*** tstart() called on wr39
*** at Sun Sep 25 08:53:07 2016


         ---------------------------------------------------------
                                   SCF
            by Justin Turney, Rob Parrish, and Andy Simmonett
                              RHF Reference
                       12 Threads,  40000 MiB Core
         ---------------------------------------------------------

  ==> Geometry <==

    Molecular point group: c1
    Full point group: C1

    Geometry (in Angstrom), charge = 0, multiplicity = 1:

       Center              X                  Y                   Z               Mass       
    ------------   -----------------  -----------------  -----------------  -----------------
           C         -3.808989302880     0.911362787594    -0.179384374409    12.000000000000
           H         -4.123335391092     1.891287646693     0.178946538006     1.007825032070
           H         -4.514284093820     0.171734897997     0.201570278541     1.007825032070
           H         -3.885074629129     0.912087858894    -1.267525723842     1.007825032070
           C          3.113343160414     1.451424241567     0.209784444967    12.000000000000
           H          4.000056247410     1.989048283131    -0.125232605384     1.007825032070
           H          3.105050070584     1.466399425600     1.301032533665     1.007825032070
           H          2.241945044657     2.004941185402    -0.137842503124     1.007825032070
           C         -2.388043063633     0.579959017297     0.260556962467    12.000000000000
           H         -2.324913362481     0.596785773072     1.352517825407     1.007825032070
           H         -1.707340018422     1.352272349779    -0.102585861212     1.007825032070
           C          3.110718788838     0.016639815818    -0.307199115567    12.000000000000
           H          3.080846030911     0.020168861011    -1.400326174338     1.007825032070
           H          4.048271100127    -0.467386604800    -0.024786784455     1.007825032070
           C         -1.937457290797    -0.787361501976    -0.241723002887    12.000000000000
           H         -1.939983334937    -0.786002165556    -1.336765518764     1.007825032070
           H         -2.675790476366    -1.533044911876     0.067714630268     1.007825032070
           C         -0.558208832254    -1.208821442658     0.258837089478    12.000000000000
           H         -0.355749759566    -2.234064914160    -0.064211699939     1.007825032070
           H         -0.561288171587    -1.224337828192     1.353699004621     1.007825032070
           C          0.575398858686    -0.310840491736    -0.224577609737    12.000000000000
           H          0.550353340478    -0.256857536686    -1.318875464176     1.007825032070
           H          0.420210753544     0.704965426936     0.142820334720     1.007825032070
           C          1.943638860182    -0.814182900086     0.221371386063    12.000000000000
           H          1.980164527714    -0.830665926890     1.315737594083     1.007825032070
           H          2.060743923456    -1.850563156762    -0.108093250881     1.007825032070

  Running in c1 symmetry.

  Rotational constants: A =      0.13525  B =      0.02305  C =      0.02065 [cm^-1]
  Rotational constants: A =   4054.57399  B =    690.87603  C =    619.11592 [MHz]
  Nuclear repulsion =  387.382221367249997

  Charge       = 0
  Multiplicity = 1
  Electrons    = 66
  Nalpha       = 33
  Nbeta        = 33

  ==> Algorithm <==

  SCF Algorithm Type is DF.
  DIIS enabled.
  MOM disabled.
  Fractional occupation disabled.
  Guess Type is SAD.
  Energy threshold   = 1.00e-08
  Density threshold  = 1.00e-08
  Integral threshold = 0.00e+00

  ==> Primary Basis <==

  Basis Set: AUG-CC-PVTZ
    Number of shells: 274
    Number of basis function: 782
    Number of Cartesian functions: 890
    Spherical Harmonics?: true
    Max angular momentum: 3

  ==> Pre-Iterations <==

   -------------------------------------------------------
    Irrep   Nso     Nmo     Nalpha   Nbeta   Ndocc  Nsocc
   -------------------------------------------------------
     A        782     782       0       0       0       0
   -------------------------------------------------------
    Total     782     782      33      33      33       0
   -------------------------------------------------------

  ==> Integral Setup <==

  ==> DFJK: Density-Fitted J/K Matrices <==

    J tasked:                  Yes
    K tasked:                  Yes
    wK tasked:                  No
    OpenMP threads:             12
    Integrals threads:          12
    Memory (MB):             28610
    Algorithm:                Core
    Integral Cache:           SAVE
    Schwarz Cutoff:          1E-12
    Fitting Condition:       1E-12

   => Auxiliary Basis Set <=

  Basis Set: 
    Number of shells: 492
    Number of basis function: 1660
    Number of Cartesian functions: 2038
    Spherical Harmonics?: true
    Max angular momentum: 4

  Minimum eigenvalue in the overlap matrix is 2.3394491449E-06.
  Using Symmetric Orthogonalization.
  SCF Guess: Superposition of Atomic Densities via on-the-fly atomic UHF.

  ==> Iterations <==

                           Total Energy        Delta E     RMS |[F,P]|

   @DF-RHF iter   0:  -316.77586111204909   -3.16776e+02   6.92171e-03 
   @DF-RHF iter   1:  -313.28243000856975    3.49343e+00   7.58108e-04 
   @DF-RHF iter   2:  -313.50618740210683   -2.23757e-01   2.91508e-04 DIIS
   @DF-RHF iter   3:  -313.53828516661537   -3.20978e-02   1.02524e-04 DIIS
   @DF-RHF iter   4:  -313.54380566036474   -5.52049e-03   1.62625e-05 DIIS
   @DF-RHF iter   5:  -313.54397099937154   -1.65339e-04   5.11223e-06 DIIS
   @DF-RHF iter   6:  -313.54398457413373   -1.35748e-05   1.24862e-06 DIIS
   @DF-RHF iter   7:  -313.54398558489714   -1.01076e-06   2.38258e-07 DIIS
   @DF-RHF iter   8:  -313.54398562371824   -3.88211e-08   7.79165e-08 DIIS
   @DF-RHF iter   9:  -313.54398562672526   -3.00702e-09   1.96942e-08 DIIS
   @DF-RHF iter  10:  -313.54398562700197   -2.76714e-10   4.81799e-09 DIIS

  ==> Post-Iterations <==

    Orbital Energies (a.u.)
    -----------------------

    Doubly Occupied:                                                      

       1A    -11.212804     2A    -11.212023     3A    -11.210585  
       4A    -11.210228     5A    -11.209976     6A    -11.208670  
       7A    -11.206971     8A    -11.206692     9A     -1.093781  
      10A     -1.061528    11A     -1.009680    12A     -0.947460  
      13A     -0.881114    14A     -0.830070    15A     -0.781074  
      16A     -0.767302    17A     -0.643286    18A     -0.632905  
      19A     -0.606263    20A     -0.593641    21A     -0.579918  
      22A     -0.561831    23A     -0.549356    24A     -0.521897  
      25A     -0.515912    26A     -0.500620    27A     -0.488168  
      28A     -0.475645    29A     -0.464031    30A     -0.458982  
      31A     -0.454009    32A     -0.440336    33A     -0.432748  

    Virtual:                                                              

      34A      0.029929    35A      0.032371    36A      0.034269  
      37A      0.036460    38A      0.044752    39A      0.046656  
      40A      0.049806    41A      0.053669    42A      0.057439  
      43A      0.064894    44A      0.066021    45A      0.069445  
      46A      0.072370    47A      0.079268    48A      0.088702  
      49A      0.092708    50A      0.095155    51A      0.105919  
      52A      0.113133    53A      0.116208    54A      0.116922  
      55A      0.123701    56A      0.125967    57A      0.132440  
      58A      0.135392    59A      0.136172    60A      0.140089  
      61A      0.145953    62A      0.150937    63A      0.155638  
      64A      0.156616    65A      0.158540    66A      0.161946  
      67A      0.162796    68A      0.164597    69A      0.169279  
      70A      0.174309    71A      0.179015    72A      0.186914  
      73A      0.193393    74A      0.197035    75A      0.199062  
      76A      0.207520    77A      0.214757    78A      0.222574  
      79A      0.224011    80A      0.236593    81A      0.237456  
      82A      0.243181    83A      0.253959    84A      0.260367  
      85A      0.263545    86A      0.275216    87A      0.276836  
      88A      0.279749    89A      0.282258    90A      0.290529  
      91A      0.298195    92A      0.303074    93A      0.303695  
      94A      0.307891    95A      0.318260    96A      0.322894  
      97A      0.325438    98A      0.327457    99A      0.330417  
     100A      0.334698   101A      0.337586   102A      0.343453  
     103A      0.349165   104A      0.355360   105A      0.356421  
     106A      0.358821   107A      0.361759   108A      0.364346  
     109A      0.366123   110A      0.368125   111A      0.372700  
     112A      0.374153   113A      0.378815   114A      0.387705  
     115A      0.390892   116A      0.397032   117A      0.400525  
     118A      0.401514   119A      0.404444   120A      0.406462  
     121A      0.408111   122A      0.411687   123A      0.421018  
     124A      0.428346   125A      0.431901   126A      0.433676  
     127A      0.437243   128A      0.440781   129A      0.441612  
     130A      0.445781   131A      0.451339   132A      0.453719  
     133A      0.457776   134A      0.461766   135A      0.464218  
     136A      0.474867   137A      0.476269   138A      0.481006  
     139A      0.482256   140A      0.484119   141A      0.485970  
     142A      0.491609   143A      0.493639   144A      0.499985  
     145A      0.504194   146A      0.505934   147A      0.509307  
     148A      0.512341   149A      0.513258   150A      0.518672  
     151A      0.523757   152A      0.529934   153A      0.532181  
     154A      0.534492   155A      0.540928   156A      0.541404  
     157A      0.548537   158A      0.552672   159A      0.559191  
     160A      0.565232   161A      0.566430   162A      0.573733  
     163A      0.575032   164A      0.578518   165A      0.582374  
     166A      0.587215   167A      0.592182   168A      0.598086  
     169A      0.606447   170A      0.607613   171A      0.615425  
     172A      0.617063   173A      0.625011   174A      0.627876  
     175A      0.632298   176A      0.641869   177A      0.646501  
     178A      0.652591   179A      0.654388   180A      0.659834  
     181A      0.662611   182A      0.667702   183A      0.681717  
     184A      0.684212   185A      0.688259   186A      0.692889  
     187A      0.699264   188A      0.706306   189A      0.713469  
     190A      0.719055   191A      0.721403   192A      0.728951  
     193A      0.731914   194A      0.747238   195A      0.751149  
     196A      0.754778   197A      0.771923   198A      0.775363  
     199A      0.786223   200A      0.794601   201A      0.805144  
     202A      0.807532   203A      0.821774   204A      0.828476  
     205A      0.833224   206A      0.837209   207A      0.840112  
     208A      0.853175   209A      0.854988   210A      0.859770  
     211A      0.860973   212A      0.864613   213A      0.873546  
     214A      0.880603   215A      0.882017   216A      0.889104  
     217A      0.892394   218A      0.894532   219A      0.896548  
     220A      0.905434   221A      0.910141   222A      0.914251  
     223A      0.915100   224A      0.923576   225A      0.930180  
     226A      0.933716   227A      0.937094   228A      0.941230  
     229A      0.949140   230A      0.952761   231A      0.955094  
     232A      0.964139   233A      0.965903   234A      0.967771  
     235A      0.973902   236A      0.984808   237A      0.991200  
     238A      0.994463   239A      0.997529   240A      1.003274  
     241A      1.006255   242A      1.009715   243A      1.015490  
     244A      1.017973   245A      1.025458   246A      1.034614  
     247A      1.040553   248A      1.043530   249A      1.047917  
     250A      1.060876   251A      1.061692   252A      1.064555  
     253A      1.073094   254A      1.081571   255A      1.085103  
     256A      1.087283   257A      1.092058   258A      1.097820  
     259A      1.106847   260A      1.111499   261A      1.113769  
     262A      1.120732   263A      1.126604   264A      1.131343  
     265A      1.134869   266A      1.142263   267A      1.144372  
     268A      1.149050   269A      1.158558   270A      1.159189  
     271A      1.166565   272A      1.173900   273A      1.174691  
     274A      1.179461   275A      1.185089   276A      1.192416  
     277A      1.199258   278A      1.202147   279A      1.212406  
     280A      1.213756   281A      1.214732   282A      1.220829  
     283A      1.223880   284A      1.234860   285A      1.236785  
     286A      1.243681   287A      1.249107   288A      1.252115  
     289A      1.255599   290A      1.260997   291A      1.267022  
     292A      1.273637   293A      1.278050   294A      1.284588  
     295A      1.292977   296A      1.299078   297A      1.303078  
     298A      1.314215   299A      1.316519   300A      1.321462  
     301A      1.327198   302A      1.329120   303A      1.338833  
     304A      1.343101   305A      1.348612   306A      1.354777  
     307A      1.361426   308A      1.367494   309A      1.384205  
     310A      1.389614   311A      1.395350   312A      1.398727  
     313A      1.406013   314A      1.419820   315A      1.425455  
     316A      1.436200   317A      1.439706   318A      1.440905  
     319A      1.458636   320A      1.467339   321A      1.469736  
     322A      1.482418   323A      1.483889   324A      1.492871  
     325A      1.494754   326A      1.504178   327A      1.512314  
     328A      1.515732   329A      1.521810   330A      1.530735  
     331A      1.546798   332A      1.552659   333A      1.560350  
     334A      1.567822   335A      1.575844   336A      1.580521  
     337A      1.584820   338A      1.591302   339A      1.603703  
     340A      1.609402   341A      1.618092   342A      1.629301  
     343A      1.636539   344A      1.638185   345A      1.644612  
     346A      1.652044   347A      1.661193   348A      1.668318  
     349A      1.668904   350A      1.680545   351A      1.682207  
     352A      1.689289   353A      1.690084   354A      1.700299  
     355A      1.703696   356A      1.704899   357A      1.715751  
     358A      1.725200   359A      1.729422   360A      1.731027  
     361A      1.739704   362A      1.742224   363A      1.752679  
     364A      1.760063   365A      1.767294   366A      1.768620  
     367A      1.769307   368A      1.775643   369A      1.782342  
     370A      1.782950   371A      1.789241   372A      1.797706  
     373A      1.807601   374A      1.812586   375A      1.819744  
     376A      1.822481   377A      1.833462   378A      1.834211  
     379A      1.838893   380A      1.840301   381A      1.848476  
     382A      1.854051   383A      1.858385   384A      1.862198  
     385A      1.869055   386A      1.885411   387A      1.891339  
     388A      1.908008   389A      1.908256   390A      1.911840  
     391A      1.917723   392A      1.923263   393A      1.930985  
     394A      1.940868   395A      1.950626   396A      1.952029  
     397A      1.965948   398A      1.969708   399A      1.979093  
     400A      1.984177   401A      1.988346   402A      1.994035  
     403A      1.999892   404A      2.006006   405A      2.011818  
     406A      2.018895   407A      2.026678   408A      2.032427  
     409A      2.036233   410A      2.045284   411A      2.050315  
     412A      2.065404   413A      2.067890   414A      2.077345  
     415A      2.090557   416A      2.096123   417A      2.104730  
     418A      2.109603   419A      2.115331   420A      2.126440  
     421A      2.129478   422A      2.137979   423A      2.145869  
     424A      2.150097   425A      2.164319   426A      2.165135  
     427A      2.174312   428A      2.193027   429A      2.209158  
     430A      2.214650   431A      2.230265   432A      2.237119  
     433A      2.245422   434A      2.251743   435A      2.255836  
     436A      2.273149   437A      2.276670   438A      2.286731  
     439A      2.293292   440A      2.295259   441A      2.297880  
     442A      2.310961   443A      2.318012   444A      2.322914  
     445A      2.331409   446A      2.340075   447A      2.344336  
     448A      2.353208   449A      2.370079   450A      2.376200  
     451A      2.381254   452A      2.401137   453A      2.402288  
     454A      2.411049   455A      2.425611   456A      2.437400  
     457A      2.451875   458A      2.468891   459A      2.479356  
     460A      2.487159   461A      2.493516   462A      2.500500  
     463A      2.524257   464A      2.541552   465A      2.551711  
     466A      2.561193   467A      2.565725   468A      2.580434  
     469A      2.587996   470A      2.595487   471A      2.601374  
     472A      2.623896   473A      2.643525   474A      2.659051  
     475A      2.666680   476A      2.683570   477A      2.699769  
     478A      2.725422   479A      2.738030   480A      2.770594  
     481A      2.779932   482A      2.801742   483A      2.835417  
     484A      2.863860   485A      2.910263   486A      2.941849  
     487A      2.959681   488A      3.001262   489A      3.016017  
     490A      3.090694   491A      3.163763   492A      3.166348  
     493A      3.282843   494A      3.308863   495A      3.332197  
     496A      3.401943   497A      3.413146   498A      3.431435  
     499A      3.457996   500A      3.462140   501A      3.474211  
     502A      3.480292   503A      3.493195   504A      3.507340  
     505A      3.524700   506A      3.530780   507A      3.540962  
     508A      3.558979   509A      3.564796   510A      3.580963  
     511A      3.592280   512A      3.600059   513A      3.613888  
     514A      3.627568   515A      3.629014   516A      3.650237  
     517A      3.661271   518A      3.667055   519A      3.677805  
     520A      3.683107   521A      3.697281   522A      3.704876  
     523A      3.709351   524A      3.712880   525A      3.729995  
     526A      3.739785   527A      3.748667   528A      3.754626  
     529A      3.757121   530A      3.766716   531A      3.773706  
     532A      3.791097   533A      3.798103   534A      3.805317  
     535A      3.816058   536A      3.818463   537A      3.826521  
     538A      3.835241   539A      3.843454   540A      3.850937  
     541A      3.859150   542A      3.875050   543A      3.885479  
     544A      3.889088   545A      3.897839   546A      3.908828  
     547A      3.910611   548A      3.919875   549A      3.929954  
     550A      3.937289   551A      3.942470   552A      3.951647  
     553A      3.954843   554A      3.965476   555A      3.971794  
     556A      3.982495   557A      3.984757   558A      3.999883  
     559A      4.002346   560A      4.004537   561A      4.012963  
     562A      4.022826   563A      4.024448   564A      4.032904  
     565A      4.036770   566A      4.039087   567A      4.050930  
     568A      4.055964   569A      4.061409   570A      4.073393  
     571A      4.082509   572A      4.096097   573A      4.100807  
     574A      4.108193   575A      4.117471   576A      4.127669  
     577A      4.133940   578A      4.137313   579A      4.145588  
     580A      4.161387   581A      4.171518   582A      4.180672  
     583A      4.200718   584A      4.217301   585A      4.222733  
     586A      4.233957   587A      4.240072   588A      4.245456  
     589A      4.262069   590A      4.267049   591A      4.271019  
     592A      4.273038   593A      4.287675   594A      4.293159  
     595A      4.306843   596A      4.321348   597A      4.328750  
     598A      4.334352   599A      4.346573   600A      4.365242  
     601A      4.374793   602A      4.392131   603A      4.398466  
     604A      4.412592   605A      4.421429   606A      4.433153  
     607A      4.442405   608A      4.455391   609A      4.479700  
     610A      4.482173   611A      4.486988   612A      4.501189  
     613A      4.512216   614A      4.521571   615A      4.539404  
     616A      4.550164   617A      4.579887   618A      4.595197  
     619A      4.607689   620A      4.610875   621A      4.633037  
     622A      4.650623   623A      4.656053   624A      4.670209  
     625A      4.678971   626A      4.685125   627A      4.707845  
     628A      4.709292   629A      4.715704   630A      4.726695  
     631A      4.735019   632A      4.746066   633A      4.759644  
     634A      4.763714   635A      4.785940   636A      4.790687  
     637A      4.804940   638A      4.813702   639A      4.822320  
     640A      4.823756   641A      4.838064   642A      4.846380  
     643A      4.866912   644A      4.874527   645A      4.880102  
     646A      4.890103   647A      4.901030   648A      4.903929  
     649A      4.913235   650A      4.916436   651A      4.925998  
     652A      4.944218   653A      4.964377   654A      4.980098  
     655A      4.991232   656A      5.004622   657A      5.020181  
     658A      5.034518   659A      5.038936   660A      5.042362  
     661A      5.048506   662A      5.066840   663A      5.086225  
     664A      5.094587   665A      5.107374   666A      5.118196  
     667A      5.140375   668A      5.152598   669A      5.166217  
     670A      5.171316   671A      5.179183   672A      5.197344  
     673A      5.204452   674A      5.219011   675A      5.229004  
     676A      5.235186   677A      5.243306   678A      5.258185  
     679A      5.275507   680A      5.297749   681A      5.306800  
     682A      5.322242   683A      5.332408   684A      5.340647  
     685A      5.345556   686A      5.363229   687A      5.377070  
     688A      5.380229   689A      5.389620   690A      5.393469  
     691A      5.410294   692A      5.427433   693A      5.433371  
     694A      5.439373   695A      5.451320   696A      5.467609  
     697A      5.469412   698A      5.473729   699A      5.483678  
     700A      5.509836   701A      5.517302   702A      5.525829  
     703A      5.537550   704A      5.549396   705A      5.563482  
     706A      5.580381   707A      5.590076   708A      5.604392  
     709A      5.609399   710A      5.624961   711A      5.639085  
     712A      5.645482   713A      5.657166   714A      5.670522  
     715A      5.691582   716A      5.696258   717A      5.705192  
     718A      5.733766   719A      5.741407   720A      5.747484  
     721A      5.750993   722A      5.760980   723A      5.769302  
     724A      5.789913   725A      5.797729   726A      5.831574  
     727A      5.834942   728A      5.859584   729A      5.872703  
     730A      5.883184   731A      5.901978   732A      5.934638  
     733A      5.950511   734A      5.979416   735A      6.006544  
     736A      6.029137   737A      6.033910   738A      6.046547  
     739A      6.084616   740A      6.111457   741A      6.120179  
     742A      6.137812   743A      6.180031   744A      6.184875  
     745A      6.216076   746A      6.222129   747A      6.254459  
     748A      6.258477   749A      6.272068   750A      6.288257  
     751A      6.293895   752A      6.311190   753A      6.314894  
     754A      6.341020   755A      6.343361   756A      6.362307  
     757A      6.402110   758A      6.413981   759A      6.565706  
     760A      6.574829   761A      6.607219   762A      6.662252  
     763A      6.699746   764A      6.773279   765A      6.787654  
     766A      6.806331   767A      6.846468   768A      6.874744  
     769A      6.892267   770A      6.915351   771A      6.969206  
     772A      7.000621   773A      7.063653   774A      7.120439  
     775A     17.792169   776A     18.056387   777A     18.162335  
     778A     18.443314   779A     18.521526   780A     18.738721  
     781A     19.135298   782A     19.597608  

    Final Occupation by Irrep:
              A 
    DOCC [    33 ]

  Energy converged.

  @DF-RHF Final Energy:  -313.54398562700197

   => Energetics <=

    Nuclear Repulsion Energy =            387.3822213672499970
    One-Electron Energy =               -1189.9133989686683890
    Two-Electron Energy =                 488.9871919744162483
    DFT Exchange-Correlation Energy =       0.0000000000000000
    Empirical Dispersion Energy =           0.0000000000000000
    PCM Polarization Energy =               0.0000000000000000
    EFP Energy =                            0.0000000000000000
    Total Energy =                       -313.5439856270022005


  Saving occupied orbitals to File 180.

*** tstop() called on wr39 at Sun Sep 25 09:04:32 2016
Module time:
	user time   =     540.41 seconds =       9.01 minutes
	system time =       9.93 seconds =       0.17 minutes
	total time  =        685 seconds =      11.42 minutes
Total time:
	user time   =     540.41 seconds =       9.01 minutes
	system time =       9.93 seconds =       0.17 minutes
	total time  =        685 seconds =      11.42 minutes


Properties will be evaluated at   0.000000,   0.000000,   0.000000 Bohr

Properties computed using the SCF density matrix

  Nuclear Dipole Moment: (a.u.)
     X:    -0.5626      Y:     1.8063      Z:     0.0261

  Electronic Dipole Moment: (a.u.)
     X:     0.5901      Y:    -1.8219      Z:    -0.0262

  Dipole Moment: (a.u.)
     X:     0.0275      Y:    -0.0156      Z:    -0.0002     Total:     0.0316

  Dipole Moment: (Debye)
     X:     0.0700      Y:    -0.0396      Z:    -0.0005     Total:     0.0804


*** tstart() called on wr39
*** at Sun Sep 25 09:04:33 2016



  Options:
  ----------------------------------------------------------------------------
  ACTIVE                      => [  ]             
  BENCH                       => 0                
  CC_DIIS_MAX_VECS            => 6                
  CC_DIIS_MIN_VECS            => 2                
  CC_LAMBDA                   => FALSE            
  CC_MAXITER                  => 50               
  CC_TYPE                     => CONV             
  CHOLESKY                    => FALSE           !
  CHOLESKY_TOLERANCE          => 0.0001           
  CI_TYPE                     => CONV             
  COMPUT_S2                   => FALSE            
  CUBEPROP_BASIS_FUNCTIONS    => [  ]             
  CUBEPROP_FILEPATH           => .                
  CUBEPROP_ORBITALS           => [  ]             
  CUBEPROP_TASKS              => [  ]             
  CUBIC_BASIS_TOLERANCE       => 1e-12            
  CUBIC_BLOCK_MAX_POINTS      => 1000             
  CUBIC_GRID_OVERAGE          => [  ]             
  CUBIC_GRID_SPACING          => [  ]             
  CUTOFF                      => 8                
  DEBUG                       => 0                
  DERTYPE                     => NONE             
  DF_BASIS_CC                 => (empty)          
  DIE_IF_NOT_CONVERGED        => TRUE             
  DKH_ORDER                   => 2                
  DOCC                        => [  ]             
  DO_DIIS                     => TRUE             
  DO_LEVEL_SHIFT              => TRUE             
  DO_SCS                      => FALSE           !
  DO_SOS                      => FALSE           !
  E3_SCALE                    => 0.25             
  EKT_IP                      => FALSE            
  EXTERNAL_POTENTIAL_SYMMETRY => FALSE            
  E_CONVERGENCE               => 1e-06           !
  FREEZE_CORE                 => TRUE            !
  FROZEN_DOCC                 => [  ]             
  FROZEN_UOCC                 => [  ]             
  HESS_TYPE                   => HF               
  INTEGRAL_CUTOFF             => 9                
  INTEGRAL_PACKAGE            => ERD              
  LEVEL_SHIFT                 => 0.02             
  LINEQ_SOLVER                => CDGESV           
  LITERAL_CFOUR               => (empty)          
  MAT_NUM_COLUMN_PRINT        => 5                
  MAX_MOGRAD_CONVERGENCE      => 0.001            
  MOLDEN_WRITE                => FALSE            
  MO_DIIS_NUM_VECS            => 6                
  MO_MAXITER                  => 50               
  MO_STEP_MAX                 => 0.5              
  MP2_AMP_TYPE                => DIRECT           
  MP2_OS_SCALE                => 1.2              
  MP2_SOS_SCALE               => 1.3              
  MP2_SOS_SCALE2              => 1.2              
  MP2_SS_SCALE                => 0.333333         
  MP2_TYPE                    => DF               
  MP_TYPE                     => DF              !
  NAT_ORBS                    => FALSE            
  NUM_FROZEN_DOCC             => 0                
  NUM_FROZEN_UOCC             => 0                
  OCC_ORBS_PRINT              => FALSE            
  OEPROP                      => FALSE            
  OO_SCALE                    => 0.01             
  OPT_METHOD                  => QNR              
  ORB_OPT                     => FALSE           !
  ORB_RESP_SOLVER             => PCG              
  ORTH_TYPE                   => MGS              
  PCG_BETA_TYPE               => FLETCHER_REEVES  
  PCG_CONVERGENCE             => 1e-06            
  PCG_MAXITER                 => 50               
  PCM                         => FALSE            
  PCM_SCF_TYPE                => TOTAL            
  PPL_TYPE                    => AUTO             
  PRINT                       => 1                
  PRINT_NOONS                 => 3                
  PROPERTIES                  => [  ]             
  PROPERTIES_ORIGIN           => [  ]             
  PUREAM                      => TRUE             
  QCHF                        => FALSE            
  QC_MODULE                   => (empty)          
  RAS1                        => [  ]             
  RAS2                        => [  ]             
  RAS3                        => [  ]             
  RAS4                        => [  ]             
  READ_SCF_3INDEX             => TRUE             
  REGULARIZATION              => FALSE            
  REG_PARAM                   => 0.4              
  RELATIVISTIC                => NO               
  REL_BASIS                   => (empty)          
  RESTRICTED_DOCC             => [  ]             
  RESTRICTED_UOCC             => [  ]             
  RMS_MOGRAD_CONVERGENCE      => 1e-06            
  RUN_CCTRANSORT              => TRUE             
  R_CONVERGENCE               => 1e-05            
  SCS_TYPE                    => SCS              
  SOCC                        => [  ]             
  SOS_TYPE                    => SOS              
  TRIPLES_IABC_TYPE           => DISK             
  UNITS                       => ANGSTROMS        
  WFN                         => SCF              
  WFN_TYPE                    => DF-OMP2.5       !
  WRITER_FILE_LABEL           => (empty)          


 ============================================================================== 
 ============================================================================== 
 ============================================================================== 

                    DF-MP2.5  
              Program Written by Ugur Bozkaya
              Latest Revision April 17, 2016

 ============================================================================== 
 ============================================================================== 
 ============================================================================== 

	MO spaces... 

	 FC   OCC   VIR   FV 
	----------------------
	  8   25   749    0

	Number of basis functions in the DF-CC basis: 1676

	Available memory                      :  38146.97 MB 
	Memory requirement for 3-index ints   :   7420.87 MB 
	Memory requirement for DF-CC int trans:  22482.42 MB 
	Memory requirement for CC contractions:  18644.11 MB 
	Total memory requirement for DF+CC int:  26064.98 MB 
	Memory requirement for Wabef term     :  20227.74 MB 

	Computing DF-MP2 energy ... 
	======================================================================= 
	Nuclear Repulsion Energy (a.u.)    :   387.38222136725000
	DF-HF Energy (a.u.)                :  -313.54398562700197
	REF Energy (a.u.)                  :  -313.54398562700197
	DF-MP2 Correlation Energy (a.u.)   :    -1.43976706803597
	DF-MP2 Total Energy (a.u.)         :  -314.98375269503794
	======================================================================= 

	======================================================================= 
	================ MP2.5 FINAL RESULTS ================================== 
	======================================================================= 
	Nuclear Repulsion Energy (a.u.)    :   387.38222136725000
	SCF Energy (a.u.)                  :  -313.54398562700197
	REF Energy (a.u.)                  :  -313.54398562700197
	DF-MP3 Correlation Energy (a.u.)   :    -1.52657217995431
	DF-MP3 Total Energy (a.u.)         :  -315.07055780695629
	DF-MP2.5 Correlation Energy (a.u.) :    -1.48316962399516
	DF-MP2.5 Total Energy (a.u.)       :  -315.02715525099711
	======================================================================= 


*** tstop() called on wr39 at Sun Sep 25 12:01:21 2016
Module time:
	user time   =   39013.21 seconds =     650.22 minutes
	system time =    1257.60 seconds =      20.96 minutes
	total time  =      10608 seconds =     176.80 minutes
Total time:
	user time   =   39553.72 seconds =     659.23 minutes
	system time =    1267.53 seconds =      21.13 minutes
	total time  =      11294 seconds =     188.23 minutes

*** Psi4 exiting successfully. Buy a developer a beer!
