    -----------------------------------------------------------------------
          Psi4: An Open-Source Ab Initio Electronic Structure Package
                              Psi4 1.0.0 Driver

                          Git: Rev {master} 6a9a71b dirty

    J. M. Turney, A. C. Simmonett, R. M. Parrish, E. G. Hohenstein,
    F. A. Evangelista, J. T. Fermann, B. J. Mintz, L. A. Burns, J. J. Wilke,
    M. L. Abrams, N. J. Russ, M. L. Leininger, C. L. Janssen, E. T. Seidl,
    W. D. Allen, H. F. Schaefer, R. A. King, E. F. Valeev, C. D. Sherrill,
    and T. D. Crawford, WIREs Comput. Mol. Sci. 2, 556-565 (2012)
    (doi: 10.1002/wcms.93)

                         Additional Contributions by
    A. E. DePrince, U. Bozkaya, A. Yu. Sokolov, D. G. A. Smith, R. Di Remigio,
    R. M. Richard, J. F. Gonthier, H. R. McAlexander, M. Saitow, and
    B. P. Pritchard
    -----------------------------------------------------------------------


    Psi4 started on: Sun Sep 25 08:53:06 2016

    Process ID:  31117
    PSI4DATADIR: /usr/local/hpc5/psi4conda/share/psi4
    Memory level set to 256.000 MB

  ==> Input File <==

--------------------------------------------------------------------------
memory 40 Gb

molecule molecule_05_psi {
0 1
    C            4.173290238529    -0.117235264765     0.126180169825
    H            4.543416564889     0.784290329623    -0.363602285635
    H            4.827023570646    -0.943459426696    -0.152137838390
    H            4.260725833460     0.031188931823     1.203288571817
    C           -4.173290438737     0.117234913726    -0.126178590694
    H           -4.260724703787    -0.031179590246    -1.203288427133
    H           -4.827024806183     0.943455978423     0.152146199994
    H           -4.543416485120    -0.784295471068     0.363595290428
    C            2.725246783732    -0.388768845052    -0.263932376801
    H            2.390688605550    -1.313018405727     0.210506161305
    H            2.656778673307    -0.549551262404    -1.343743910215
    C           -2.725247628694     0.388766356227     0.263938265035
    H           -2.390689652741     1.313020313639    -0.210491923954
    H           -2.656780703302     0.549539543456     1.343751270618
    C            1.803507217674     0.761668645664     0.125719510490
    H            2.204577468263     1.686497095888    -0.299470199954
    H            1.826041128868     0.887446104753     1.213353202296
    C            0.356519015698     0.587352288033    -0.331187879701
    H            0.335053686487     0.451491214456    -1.418017364793
    H           -0.190736325304     1.508942330598    -0.122273237776
    C           -0.356518364768    -0.587351139653     0.331183613652
    H            0.190736601918    -1.508941287620     0.122267502810
    H           -0.335052262898    -0.451490688566     1.418013326764
    C           -1.803506831569    -0.761666941445    -0.125722736217
    H           -1.826042046891    -0.887436886439    -1.213357262929
    H           -2.204575050292    -1.686498975553     0.299461215412
}

set globals {
  reference rhf
  basis aug-cc-pvtz
  scf_type df
  mp_type df
  freeze_core true
}
energy('mp2.5')
--------------------------------------------------------------------------
/usr/local/hpc5/psi4conda/lib/python2.7/site-packages/v2rdm_casscf/v2rdm_casscf.so loaded.

  Memory set to  40.000 GiB by Python script.

*** tstart() called on wr40
*** at Sun Sep 25 08:53:07 2016


         ---------------------------------------------------------
                                   SCF
            by Justin Turney, Rob Parrish, and Andy Simmonett
                              RHF Reference
                       12 Threads,  40000 MiB Core
         ---------------------------------------------------------

  ==> Geometry <==

    Molecular point group: c1
    Full point group: C1

    Geometry (in Angstrom), charge = 0, multiplicity = 1:

       Center              X                  Y                   Z               Mass       
    ------------   -----------------  -----------------  -----------------  -----------------
           C          4.173290238529    -0.117235264765     0.126180169825    12.000000000000
           H          4.543416564889     0.784290329623    -0.363602285635     1.007825032070
           H          4.827023570646    -0.943459426696    -0.152137838390     1.007825032070
           H          4.260725833460     0.031188931823     1.203288571817     1.007825032070
           C         -4.173290438737     0.117234913726    -0.126178590694    12.000000000000
           H         -4.260724703787    -0.031179590246    -1.203288427133     1.007825032070
           H         -4.827024806183     0.943455978423     0.152146199994     1.007825032070
           H         -4.543416485120    -0.784295471068     0.363595290428     1.007825032070
           C          2.725246783732    -0.388768845052    -0.263932376801    12.000000000000
           H          2.390688605550    -1.313018405727     0.210506161305     1.007825032070
           H          2.656778673307    -0.549551262404    -1.343743910215     1.007825032070
           C         -2.725247628694     0.388766356227     0.263938265035    12.000000000000
           H         -2.390689652741     1.313020313639    -0.210491923954     1.007825032070
           H         -2.656780703302     0.549539543456     1.343751270618     1.007825032070
           C          1.803507217674     0.761668645664     0.125719510490    12.000000000000
           H          2.204577468263     1.686497095888    -0.299470199954     1.007825032070
           H          1.826041128868     0.887446104753     1.213353202296     1.007825032070
           C          0.356519015698     0.587352288033    -0.331187879701    12.000000000000
           H          0.335053686487     0.451491214456    -1.418017364793     1.007825032070
           H         -0.190736325304     1.508942330598    -0.122273237776     1.007825032070
           C         -0.356518364768    -0.587351139653     0.331183613652    12.000000000000
           H          0.190736601918    -1.508941287620     0.122267502810     1.007825032070
           H         -0.335052262898    -0.451490688566     1.418013326764     1.007825032070
           C         -1.803506831569    -0.761666941445    -0.125722736217    12.000000000000
           H         -1.826042046891    -0.887436886439    -1.213357262929     1.007825032070
           H         -2.204575050292    -1.686498975553     0.299461215412     1.007825032070

  Running in c1 symmetry.

  Rotational constants: A =      0.25992  B =      0.01950  C =      0.01893 [cm^-1]
  Rotational constants: A =   7792.09500  B =    584.69868  C =    567.40534 [MHz]
  Nuclear repulsion =  385.127983023872844

  Charge       = 0
  Multiplicity = 1
  Electrons    = 66
  Nalpha       = 33
  Nbeta        = 33

  ==> Algorithm <==

  SCF Algorithm Type is DF.
  DIIS enabled.
  MOM disabled.
  Fractional occupation disabled.
  Guess Type is SAD.
  Energy threshold   = 1.00e-08
  Density threshold  = 1.00e-08
  Integral threshold = 0.00e+00

  ==> Primary Basis <==

  Basis Set: AUG-CC-PVTZ
    Number of shells: 274
    Number of basis function: 782
    Number of Cartesian functions: 890
    Spherical Harmonics?: true
    Max angular momentum: 3

  ==> Pre-Iterations <==

   -------------------------------------------------------
    Irrep   Nso     Nmo     Nalpha   Nbeta   Ndocc  Nsocc
   -------------------------------------------------------
     A        782     782       0       0       0       0
   -------------------------------------------------------
    Total     782     782      33      33      33       0
   -------------------------------------------------------

  ==> Integral Setup <==

  ==> DFJK: Density-Fitted J/K Matrices <==

    J tasked:                  Yes
    K tasked:                  Yes
    wK tasked:                  No
    OpenMP threads:             12
    Integrals threads:          12
    Memory (MB):             28610
    Algorithm:                Core
    Integral Cache:           SAVE
    Schwarz Cutoff:          1E-12
    Fitting Condition:       1E-12

   => Auxiliary Basis Set <=

  Basis Set: 
    Number of shells: 492
    Number of basis function: 1660
    Number of Cartesian functions: 2038
    Spherical Harmonics?: true
    Max angular momentum: 4

  Minimum eigenvalue in the overlap matrix is 1.8210032486E-06.
  Using Symmetric Orthogonalization.
  SCF Guess: Superposition of Atomic Densities via on-the-fly atomic UHF.

  ==> Iterations <==

                           Total Energy        Delta E     RMS |[F,P]|

   @DF-RHF iter   0:  -316.52778985118448   -3.16528e+02   6.77159e-03 
   @DF-RHF iter   1:  -313.25612762815683    3.27166e+00   8.25331e-04 
   @DF-RHF iter   2:  -313.50003810979899   -2.43910e-01   3.25211e-04 DIIS
   @DF-RHF iter   3:  -313.53822719915797   -3.81891e-02   9.88487e-05 DIIS
   @DF-RHF iter   4:  -313.54361567572880   -5.38848e-03   1.54416e-05 DIIS
   @DF-RHF iter   5:  -313.54377351568007   -1.57840e-04   4.78841e-06 DIIS
   @DF-RHF iter   6:  -313.54378610071774   -1.25850e-05   1.20550e-06 DIIS
   @DF-RHF iter   7:  -313.54378706814578   -9.67428e-07   2.20228e-07 DIIS
   @DF-RHF iter   8:  -313.54378710069420   -3.25484e-08   6.80933e-08 DIIS
   @DF-RHF iter   9:  -313.54378710274841   -2.05421e-09   1.52066e-08 DIIS
   @DF-RHF iter  10:  -313.54378710287676   -1.28352e-10   3.43797e-09 DIIS

  ==> Post-Iterations <==

    Orbital Energies (a.u.)
    -----------------------

    Doubly Occupied:                                                      

       1A    -11.211793     2A    -11.211793     3A    -11.210519  
       4A    -11.210422     5A    -11.209865     6A    -11.209338  
       7A    -11.206866     8A    -11.206866     9A     -1.093771  
      10A     -1.060881    11A     -1.009730    12A     -0.950103  
      13A     -0.873767    14A     -0.832058    15A     -0.790610  
      16A     -0.762147    17A     -0.633591    18A     -0.633212  
      19A     -0.617306    20A     -0.591604    21A     -0.578585  
      22A     -0.553758    23A     -0.545205    24A     -0.541044  
      25A     -0.510533    26A     -0.503643    27A     -0.478491  
      28A     -0.477065    29A     -0.468510    30A     -0.458105  
      31A     -0.454034    32A     -0.438944    33A     -0.432961  

    Virtual:                                                              

      34A      0.031517    35A      0.032652    36A      0.034149  
      37A      0.036948    38A      0.044045    39A      0.046980  
      40A      0.048824    41A      0.054109    42A      0.058646  
      43A      0.063346    44A      0.064403    45A      0.066658  
      46A      0.071564    47A      0.086020    48A      0.089713  
      49A      0.094255    50A      0.094766    51A      0.101296  
      52A      0.112672    53A      0.115993    54A      0.122477  
      55A      0.124112    56A      0.125267    57A      0.125885  
      58A      0.132640    59A      0.139492    60A      0.142239  
      61A      0.142824    62A      0.144224    63A      0.148604  
      64A      0.156128    65A      0.157745    66A      0.158865  
      67A      0.165224    68A      0.168149    69A      0.175997  
      70A      0.179014    71A      0.179915    72A      0.183768  
      73A      0.190580    74A      0.197852    75A      0.204402  
      76A      0.213580    77A      0.226641    78A      0.227470  
      79A      0.230295    80A      0.232323    81A      0.240460  
      82A      0.243460    83A      0.254061    84A      0.264594  
      85A      0.265334    86A      0.271744    87A      0.273464  
      88A      0.280688    89A      0.281661    90A      0.286913  
      91A      0.293627    92A      0.294047    93A      0.305461  
      94A      0.306638    95A      0.317626    96A      0.319433  
      97A      0.324346    98A      0.325767    99A      0.336483  
     100A      0.340736   101A      0.343661   102A      0.347215  
     103A      0.349119   104A      0.355540   105A      0.356907  
     106A      0.361171   107A      0.362872   108A      0.363389  
     109A      0.369042   110A      0.370502   111A      0.372619  
     112A      0.376260   113A      0.377081   114A      0.386506  
     115A      0.389309   116A      0.393637   117A      0.396706  
     118A      0.398118   119A      0.400693   120A      0.403376  
     121A      0.408600   122A      0.411938   123A      0.416682  
     124A      0.427281   125A      0.431148   126A      0.433616  
     127A      0.441336   128A      0.442349   129A      0.444482  
     130A      0.445992   131A      0.452930   132A      0.455186  
     133A      0.462741   134A      0.463675   135A      0.466276  
     136A      0.470708   137A      0.471023   138A      0.472435  
     139A      0.473893   140A      0.478799   141A      0.489211  
     142A      0.493296   143A      0.494831   144A      0.495800  
     145A      0.503991   146A      0.507293   147A      0.508813  
     148A      0.512474   149A      0.515035   150A      0.517864  
     151A      0.523076   152A      0.526852   153A      0.530956  
     154A      0.532725   155A      0.533651   156A      0.539774  
     157A      0.546074   158A      0.546674   159A      0.552804  
     160A      0.557013   161A      0.570006   162A      0.572241  
     163A      0.575074   164A      0.577577   165A      0.584279  
     166A      0.586560   167A      0.598200   168A      0.599971  
     169A      0.605809   170A      0.606126   171A      0.614286  
     172A      0.618613   173A      0.622211   174A      0.623848  
     175A      0.631815   176A      0.643484   177A      0.647534  
     178A      0.657271   179A      0.659139   180A      0.662003  
     181A      0.667266   182A      0.671673   183A      0.677151  
     184A      0.680979   185A      0.684317   186A      0.693735  
     187A      0.695218   188A      0.707936   189A      0.714796  
     190A      0.718833   191A      0.720268   192A      0.725716  
     193A      0.728945   194A      0.732039   195A      0.754417  
     196A      0.764664   197A      0.776365   198A      0.781370  
     199A      0.795506   200A      0.795574   201A      0.808094  
     202A      0.816596   203A      0.819872   204A      0.832114  
     205A      0.837392   206A      0.838787   207A      0.841471  
     208A      0.841725   209A      0.855594   210A      0.856499  
     211A      0.864516   212A      0.868238   213A      0.868866  
     214A      0.878504   215A      0.880012   216A      0.880663  
     217A      0.890422   218A      0.895192   219A      0.904394  
     220A      0.908261   221A      0.908906   222A      0.911632  
     223A      0.913739   224A      0.914672   225A      0.924337  
     226A      0.932587   227A      0.934101   228A      0.936155  
     229A      0.943931   230A      0.950040   231A      0.958713  
     232A      0.959296   233A      0.960416   234A      0.960525  
     235A      0.966944   236A      0.977127   237A      0.979002  
     238A      0.987964   239A      0.992482   240A      0.995595  
     241A      1.000839   242A      1.010259   243A      1.013260  
     244A      1.017618   245A      1.019712   246A      1.029509  
     247A      1.030496   248A      1.034023   249A      1.045156  
     250A      1.045888   251A      1.057800   252A      1.060302  
     253A      1.069686   254A      1.082024   255A      1.084115  
     256A      1.090841   257A      1.091217   258A      1.094573  
     259A      1.097515   260A      1.108420   261A      1.114054  
     262A      1.116180   263A      1.125047   264A      1.125049  
     265A      1.134713   266A      1.140457   267A      1.144166  
     268A      1.149398   269A      1.151382   270A      1.151805  
     271A      1.157762   272A      1.171005   273A      1.172109  
     274A      1.177712   275A      1.184217   276A      1.185884  
     277A      1.188538   278A      1.189187   279A      1.202429  
     280A      1.204245   281A      1.209321   282A      1.221606  
     283A      1.227411   284A      1.234353   285A      1.241133  
     286A      1.243705   287A      1.245308   288A      1.253274  
     289A      1.258665   290A      1.260754   291A      1.272051  
     292A      1.272625   293A      1.283100   294A      1.285853  
     295A      1.299376   296A      1.301217   297A      1.306047  
     298A      1.309329   299A      1.309780   300A      1.310166  
     301A      1.321522   302A      1.329163   303A      1.332040  
     304A      1.332400   305A      1.344222   306A      1.349207  
     307A      1.356013   308A      1.357554   309A      1.365976  
     310A      1.378634   311A      1.395101   312A      1.402555  
     313A      1.409520   314A      1.413285   315A      1.419579  
     316A      1.427210   317A      1.442091   318A      1.447020  
     319A      1.452661   320A      1.464522   321A      1.465654  
     322A      1.473566   323A      1.481316   324A      1.499645  
     325A      1.506679   326A      1.521173   327A      1.522664  
     328A      1.525010   329A      1.538079   330A      1.539939  
     331A      1.548236   332A      1.551827   333A      1.554777  
     334A      1.561034   335A      1.574573   336A      1.579640  
     337A      1.594762   338A      1.607105   339A      1.608601  
     340A      1.613227   341A      1.625955   342A      1.630075  
     343A      1.632464   344A      1.642130   345A      1.646520  
     346A      1.659353   347A      1.661201   348A      1.666683  
     349A      1.668205   350A      1.678747   351A      1.685361  
     352A      1.687477   353A      1.699516   354A      1.704955  
     355A      1.706526   356A      1.707172   357A      1.710654  
     358A      1.713479   359A      1.722203   360A      1.733638  
     361A      1.739520   362A      1.749850   363A      1.753029  
     364A      1.753888   365A      1.760753   366A      1.766247  
     367A      1.768391   368A      1.777162   369A      1.780889  
     370A      1.783386   371A      1.790134   372A      1.794029  
     373A      1.796536   374A      1.801123   375A      1.807876  
     376A      1.810259   377A      1.819573   378A      1.822132  
     379A      1.827686   380A      1.837457   381A      1.841105  
     382A      1.841494   383A      1.858923   384A      1.867814  
     385A      1.869546   386A      1.883957   387A      1.885152  
     388A      1.896092   389A      1.899513   390A      1.903709  
     391A      1.911974   392A      1.920442   393A      1.933162  
     394A      1.933423   395A      1.933515   396A      1.941458  
     397A      1.963062   398A      1.969214   399A      1.973283  
     400A      1.987100   401A      1.997720   402A      2.005289  
     403A      2.011236   404A      2.012254   405A      2.015066  
     406A      2.019637   407A      2.030079   408A      2.031077  
     409A      2.037942   410A      2.049723   411A      2.068164  
     412A      2.069871   413A      2.073746   414A      2.080516  
     415A      2.091360   416A      2.091997   417A      2.097323  
     418A      2.111070   419A      2.119687   420A      2.137567  
     421A      2.138395   422A      2.143479   423A      2.151449  
     424A      2.158008   425A      2.160079   426A      2.172751  
     427A      2.173899   428A      2.194799   429A      2.201168  
     430A      2.212122   431A      2.219521   432A      2.230707  
     433A      2.231851   434A      2.238284   435A      2.244006  
     436A      2.258297   437A      2.263790   438A      2.274160  
     439A      2.276918   440A      2.286210   441A      2.300204  
     442A      2.303899   443A      2.320043   444A      2.321431  
     445A      2.333940   446A      2.348745   447A      2.348783  
     448A      2.354452   449A      2.368822   450A      2.370666  
     451A      2.385387   452A      2.405714   453A      2.416713  
     454A      2.417523   455A      2.428868   456A      2.430324  
     457A      2.433498   458A      2.436303   459A      2.468172  
     460A      2.476021   461A      2.490292   462A      2.492737  
     463A      2.513886   464A      2.524920   465A      2.537590  
     466A      2.554166   467A      2.576112   468A      2.588406  
     469A      2.591224   470A      2.598425   471A      2.620371  
     472A      2.639619   473A      2.663893   474A      2.673983  
     475A      2.686371   476A      2.694377   477A      2.717308  
     478A      2.717753   479A      2.749337   480A      2.771063  
     481A      2.781454   482A      2.835513   483A      2.836293  
     484A      2.844898   485A      2.884349   486A      2.921879  
     487A      2.994208   488A      3.014934   489A      3.033963  
     490A      3.076334   491A      3.144013   492A      3.164802  
     493A      3.289016   494A      3.313144   495A      3.343220  
     496A      3.397243   497A      3.431169   498A      3.443118  
     499A      3.478795   500A      3.479446   501A      3.488362  
     502A      3.491926   503A      3.503225   504A      3.510664  
     505A      3.522327   506A      3.531438   507A      3.537869  
     508A      3.547523   509A      3.567579   510A      3.570658  
     511A      3.580060   512A      3.592786   513A      3.606660  
     514A      3.609821   515A      3.612872   516A      3.619327  
     517A      3.662553   518A      3.666650   519A      3.671679  
     520A      3.682601   521A      3.688757   522A      3.698760  
     523A      3.702044   524A      3.708067   525A      3.711562  
     526A      3.720089   527A      3.751846   528A      3.754847  
     529A      3.756502   530A      3.767937   531A      3.772778  
     532A      3.774671   533A      3.784216   534A      3.794570  
     535A      3.801211   536A      3.803480   537A      3.821792  
     538A      3.827278   539A      3.841030   540A      3.851433  
     541A      3.870072   542A      3.877659   543A      3.881709  
     544A      3.892908   545A      3.904253   546A      3.907024  
     547A      3.909105   548A      3.914527   549A      3.926031  
     550A      3.930169   551A      3.943207   552A      3.947781  
     553A      3.956981   554A      3.963590   555A      3.974454  
     556A      3.975625   557A      3.988102   558A      3.995146  
     559A      4.002299   560A      4.002652   561A      4.010906  
     562A      4.013518   563A      4.019172   564A      4.019284  
     565A      4.036267   566A      4.046160   567A      4.048096  
     568A      4.051963   569A      4.067213   570A      4.071743  
     571A      4.076144   572A      4.081274   573A      4.095633  
     574A      4.108424   575A      4.109484   576A      4.119631  
     577A      4.129177   578A      4.147596   579A      4.161212  
     580A      4.168785   581A      4.168934   582A      4.187431  
     583A      4.200318   584A      4.208199   585A      4.217407  
     586A      4.241413   587A      4.247822   588A      4.258962  
     589A      4.265215   590A      4.273860   591A      4.277352  
     592A      4.281845   593A      4.291595   594A      4.297101  
     595A      4.306776   596A      4.311112   597A      4.330424  
     598A      4.334841   599A      4.346518   600A      4.350025  
     601A      4.357394   602A      4.377944   603A      4.391557  
     604A      4.408391   605A      4.421512   606A      4.426012  
     607A      4.427597   608A      4.442367   609A      4.451583  
     610A      4.473263   611A      4.492246   612A      4.495121  
     613A      4.524703   614A      4.550711   615A      4.563354  
     616A      4.569052   617A      4.578445   618A      4.598689  
     619A      4.611211   620A      4.614134   621A      4.626944  
     622A      4.652660   623A      4.661632   624A      4.679942  
     625A      4.696499   626A      4.702409   627A      4.710182  
     628A      4.711505   629A      4.715151   630A      4.729142  
     631A      4.729227   632A      4.749291   633A      4.757166  
     634A      4.757506   635A      4.780110   636A      4.785941  
     637A      4.798445   638A      4.812142   639A      4.817266  
     640A      4.825818   641A      4.833517   642A      4.847695  
     643A      4.864546   644A      4.866934   645A      4.874507  
     646A      4.886402   647A      4.891173   648A      4.900104  
     649A      4.901027   650A      4.903454   651A      4.904523  
     652A      4.933117   653A      4.966255   654A      4.987126  
     655A      5.001185   656A      5.002033   657A      5.024952  
     658A      5.030570   659A      5.035155   660A      5.042762  
     661A      5.058297   662A      5.069486   663A      5.081628  
     664A      5.085385   665A      5.114592   666A      5.133269  
     667A      5.141396   668A      5.151837   669A      5.156930  
     670A      5.164568   671A      5.171219   672A      5.195183  
     673A      5.197408   674A      5.203941   675A      5.216722  
     676A      5.242040   677A      5.256086   678A      5.263990  
     679A      5.276926   680A      5.277221   681A      5.311140  
     682A      5.316257   683A      5.327560   684A      5.329295  
     685A      5.335510   686A      5.359133   687A      5.377614  
     688A      5.379440   689A      5.392218   690A      5.395442  
     691A      5.417991   692A      5.436042   693A      5.437240  
     694A      5.446046   695A      5.446673   696A      5.466752  
     697A      5.469912   698A      5.482552   699A      5.499270  
     700A      5.503223   701A      5.510242   702A      5.511230  
     703A      5.537377   704A      5.538930   705A      5.561281  
     706A      5.579091   707A      5.585545   708A      5.592834  
     709A      5.623834   710A      5.642564   711A      5.648202  
     712A      5.662725   713A      5.668632   714A      5.681166  
     715A      5.700609   716A      5.704723   717A      5.708130  
     718A      5.717315   719A      5.742705   720A      5.743592  
     721A      5.750338   722A      5.751210   723A      5.769147  
     724A      5.778319   725A      5.796368   726A      5.814770  
     727A      5.826216   728A      5.849328   729A      5.853611  
     730A      5.889646   731A      5.900042   732A      5.933968  
     733A      5.962427   734A      5.968086   735A      6.007942  
     736A      6.009537   737A      6.027455   738A      6.048115  
     739A      6.099506   740A      6.116761   741A      6.128842  
     742A      6.139389   743A      6.180168   744A      6.203955  
     745A      6.207376   746A      6.217816   747A      6.233998  
     748A      6.240748   749A      6.263819   750A      6.268913  
     751A      6.283071   752A      6.298965   753A      6.319325  
     754A      6.327435   755A      6.359214   756A      6.380619  
     757A      6.404336   758A      6.419490   759A      6.532963  
     760A      6.597349   761A      6.633889   762A      6.639184  
     763A      6.714531   764A      6.752529   765A      6.785128  
     766A      6.789342   767A      6.873611   768A      6.876186  
     769A      6.894168   770A      6.895183   771A      6.920476  
     772A      7.040143   773A      7.062491   774A      7.095994  
     775A     17.947262   776A     18.108171   777A     18.136610  
     778A     18.477817   779A     18.507500   780A     18.657912  
     781A     19.198463   782A     19.591959  

    Final Occupation by Irrep:
              A 
    DOCC [    33 ]

  Energy converged.

  @DF-RHF Final Energy:  -313.54378710287676

   => Energetics <=

    Nuclear Repulsion Energy =            385.1279830238728437
    One-Electron Energy =               -1185.4093016334629738
    Two-Electron Energy =                 486.7375315067132533
    DFT Exchange-Correlation Energy =       0.0000000000000000
    Empirical Dispersion Energy =           0.0000000000000000
    PCM Polarization Energy =               0.0000000000000000
    EFP Energy =                            0.0000000000000000
    Total Energy =                       -313.5437871028768768


  Saving occupied orbitals to File 180.

*** tstop() called on wr40 at Sun Sep 25 09:07:45 2016
Module time:
	user time   =     676.69 seconds =      11.28 minutes
	system time =      11.72 seconds =       0.20 minutes
	total time  =        878 seconds =      14.63 minutes
Total time:
	user time   =     676.69 seconds =      11.28 minutes
	system time =      11.72 seconds =       0.20 minutes
	total time  =        878 seconds =      14.63 minutes


Properties will be evaluated at   0.000000,   0.000000,   0.000000 Bohr

Properties computed using the SCF density matrix

  Nuclear Dipole Moment: (a.u.)
     X:     0.0000      Y:    -0.0000      Z:     0.0000

  Electronic Dipole Moment: (a.u.)
     X:    -0.0000      Y:     0.0000      Z:    -0.0000

  Dipole Moment: (a.u.)
     X:     0.0000      Y:    -0.0000      Z:    -0.0000     Total:     0.0000

  Dipole Moment: (Debye)
     X:     0.0000      Y:    -0.0000      Z:    -0.0000     Total:     0.0000


*** tstart() called on wr40
*** at Sun Sep 25 09:07:45 2016



  Options:
  ----------------------------------------------------------------------------
  ACTIVE                      => [  ]             
  BENCH                       => 0                
  CC_DIIS_MAX_VECS            => 6                
  CC_DIIS_MIN_VECS            => 2                
  CC_LAMBDA                   => FALSE            
  CC_MAXITER                  => 50               
  CC_TYPE                     => CONV             
  CHOLESKY                    => FALSE           !
  CHOLESKY_TOLERANCE          => 0.0001           
  CI_TYPE                     => CONV             
  COMPUT_S2                   => FALSE            
  CUBEPROP_BASIS_FUNCTIONS    => [  ]             
  CUBEPROP_FILEPATH           => .                
  CUBEPROP_ORBITALS           => [  ]             
  CUBEPROP_TASKS              => [  ]             
  CUBIC_BASIS_TOLERANCE       => 1e-12            
  CUBIC_BLOCK_MAX_POINTS      => 1000             
  CUBIC_GRID_OVERAGE          => [  ]             
  CUBIC_GRID_SPACING          => [  ]             
  CUTOFF                      => 8                
  DEBUG                       => 0                
  DERTYPE                     => NONE             
  DF_BASIS_CC                 => (empty)          
  DIE_IF_NOT_CONVERGED        => TRUE             
  DKH_ORDER                   => 2                
  DOCC                        => [  ]             
  DO_DIIS                     => TRUE             
  DO_LEVEL_SHIFT              => TRUE             
  DO_SCS                      => FALSE           !
  DO_SOS                      => FALSE           !
  E3_SCALE                    => 0.25             
  EKT_IP                      => FALSE            
  EXTERNAL_POTENTIAL_SYMMETRY => FALSE            
  E_CONVERGENCE               => 1e-06           !
  FREEZE_CORE                 => TRUE            !
  FROZEN_DOCC                 => [  ]             
  FROZEN_UOCC                 => [  ]             
  HESS_TYPE                   => HF               
  INTEGRAL_CUTOFF             => 9                
  INTEGRAL_PACKAGE            => ERD              
  LEVEL_SHIFT                 => 0.02             
  LINEQ_SOLVER                => CDGESV           
  LITERAL_CFOUR               => (empty)          
  MAT_NUM_COLUMN_PRINT        => 5                
  MAX_MOGRAD_CONVERGENCE      => 0.001            
  MOLDEN_WRITE                => FALSE            
  MO_DIIS_NUM_VECS            => 6                
  MO_MAXITER                  => 50               
  MO_STEP_MAX                 => 0.5              
  MP2_AMP_TYPE                => DIRECT           
  MP2_OS_SCALE                => 1.2              
  MP2_SOS_SCALE               => 1.3              
  MP2_SOS_SCALE2              => 1.2              
  MP2_SS_SCALE                => 0.333333         
  MP2_TYPE                    => DF               
  MP_TYPE                     => DF              !
  NAT_ORBS                    => FALSE            
  NUM_FROZEN_DOCC             => 0                
  NUM_FROZEN_UOCC             => 0                
  OCC_ORBS_PRINT              => FALSE            
  OEPROP                      => FALSE            
  OO_SCALE                    => 0.01             
  OPT_METHOD                  => QNR              
  ORB_OPT                     => FALSE           !
  ORB_RESP_SOLVER             => PCG              
  ORTH_TYPE                   => MGS              
  PCG_BETA_TYPE               => FLETCHER_REEVES  
  PCG_CONVERGENCE             => 1e-06            
  PCG_MAXITER                 => 50               
  PCM                         => FALSE            
  PCM_SCF_TYPE                => TOTAL            
  PPL_TYPE                    => AUTO             
  PRINT                       => 1                
  PRINT_NOONS                 => 3                
  PROPERTIES                  => [  ]             
  PROPERTIES_ORIGIN           => [  ]             
  PUREAM                      => TRUE             
  QCHF                        => FALSE            
  QC_MODULE                   => (empty)          
  RAS1                        => [  ]             
  RAS2                        => [  ]             
  RAS3                        => [  ]             
  RAS4                        => [  ]             
  READ_SCF_3INDEX             => TRUE             
  REGULARIZATION              => FALSE            
  REG_PARAM                   => 0.4              
  RELATIVISTIC                => NO               
  REL_BASIS                   => (empty)          
  RESTRICTED_DOCC             => [  ]             
  RESTRICTED_UOCC             => [  ]             
  RMS_MOGRAD_CONVERGENCE      => 1e-06            
  RUN_CCTRANSORT              => TRUE             
  R_CONVERGENCE               => 1e-05            
  SCS_TYPE                    => SCS              
  SOCC                        => [  ]             
  SOS_TYPE                    => SOS              
  TRIPLES_IABC_TYPE           => DISK             
  UNITS                       => ANGSTROMS        
  WFN                         => SCF              
  WFN_TYPE                    => DF-OMP2.5       !
  WRITER_FILE_LABEL           => (empty)          


 ============================================================================== 
 ============================================================================== 
 ============================================================================== 

                    DF-MP2.5  
              Program Written by Ugur Bozkaya
              Latest Revision April 17, 2016

 ============================================================================== 
 ============================================================================== 
 ============================================================================== 

	MO spaces... 

	 FC   OCC   VIR   FV 
	----------------------
	  8   25   749    0

	Number of basis functions in the DF-CC basis: 1676

	Available memory                      :  38146.97 MB 
	Memory requirement for 3-index ints   :   7420.87 MB 
	Memory requirement for DF-CC int trans:  22482.42 MB 
	Memory requirement for CC contractions:  18644.11 MB 
	Total memory requirement for DF+CC int:  26064.98 MB 
	Memory requirement for Wabef term     :  20227.74 MB 

	Computing DF-MP2 energy ... 
	======================================================================= 
	Nuclear Repulsion Energy (a.u.)    :   385.12798302387284
	DF-HF Energy (a.u.)                :  -313.54378710287676
	REF Energy (a.u.)                  :  -313.54378710287676
	DF-MP2 Correlation Energy (a.u.)   :    -1.43972099448627
	DF-MP2 Total Energy (a.u.)         :  -314.98350809736303
	======================================================================= 

	======================================================================= 
	================ MP2.5 FINAL RESULTS ================================== 
	======================================================================= 
	Nuclear Repulsion Energy (a.u.)    :   385.12798302387284
	SCF Energy (a.u.)                  :  -313.54378710287676
	REF Energy (a.u.)                  :  -313.54378710287676
	DF-MP3 Correlation Energy (a.u.)   :    -1.52657528419365
	DF-MP3 Total Energy (a.u.)         :  -315.07036238707042
	DF-MP2.5 Correlation Energy (a.u.) :    -1.48314813933995
	DF-MP2.5 Total Energy (a.u.)       :  -315.02693524221672
	======================================================================= 


*** tstop() called on wr40 at Sun Sep 25 11:59:28 2016
Module time:
	user time   =   38680.69 seconds =     644.68 minutes
	system time =    1399.79 seconds =      23.33 minutes
	total time  =      10303 seconds =     171.72 minutes
Total time:
	user time   =   39357.47 seconds =     655.96 minutes
	system time =    1411.51 seconds =      23.53 minutes
	total time  =      11181 seconds =     186.35 minutes

*** Psi4 exiting successfully. Buy a developer a beer!
