    -----------------------------------------------------------------------
          Psi4: An Open-Source Ab Initio Electronic Structure Package
                              Psi4 1.0.0 Driver

                          Git: Rev {master} 6a9a71b dirty

    J. M. Turney, A. C. Simmonett, R. M. Parrish, E. G. Hohenstein,
    F. A. Evangelista, J. T. Fermann, B. J. Mintz, L. A. Burns, J. J. Wilke,
    M. L. Abrams, N. J. Russ, M. L. Leininger, C. L. Janssen, E. T. Seidl,
    W. D. Allen, H. F. Schaefer, R. A. King, E. F. Valeev, C. D. Sherrill,
    and T. D. Crawford, WIREs Comput. Mol. Sci. 2, 556-565 (2012)
    (doi: 10.1002/wcms.93)

                         Additional Contributions by
    A. E. DePrince, U. Bozkaya, A. Yu. Sokolov, D. G. A. Smith, R. Di Remigio,
    R. M. Richard, J. F. Gonthier, H. R. McAlexander, M. Saitow, and
    B. P. Pritchard
    -----------------------------------------------------------------------


    Psi4 started on: Fri Sep 23 09:09:28 2016

    Process ID:   4174
    PSI4DATADIR: /usr/local/hpc5/psi4conda/share/psi4
    Memory level set to 256.000 MB

  ==> Input File <==

--------------------------------------------------------------------------
memory 30 Gb

molecule molecule_02_psi {
0 1
    C           -3.823673374369     0.256843488715    -1.130282884258
    H           -4.862723855855    -0.063557200642    -1.058005479069
    H           -3.414974884909    -0.137666921694    -2.061386310956
    H           -3.812269069852     1.345399415075    -1.198107089541
    C            3.823675000933    -0.256838184607    -1.130278687404
    H            4.862724385762     0.063565269196    -1.058000204289
    H            3.414976408371     0.137671165495    -2.061382291712
    H            3.812273666266    -1.345393939243    -1.198102943439
    C           -3.003613393828    -0.217875451176     0.062864756518
    H           -3.043619627413    -1.308517018970     0.128149281399
    H           -3.442179800455     0.163858565920     0.988647304128
    C            3.003612287155     0.217878179621     0.062868023607
    H            3.442178317941    -0.163854734741     0.988650788618
    H            3.043614915959     1.308519566776     0.128152701926
    C           -1.547339406513     0.222877390172    -0.018980813288
    H           -1.503044351756     1.316292179866    -0.069946897873
    H           -1.117746692096    -0.149354997056    -0.952756584249
    C           -0.718536307900    -0.257811071166     1.166627938901
    H           -0.708974620908    -1.352579382704     1.177973082426
    H           -1.213350184426     0.056841882033     2.090079607439
    C            0.718535170112     0.257804368458     1.166630056384
    H            0.708973206659     1.352572496994     1.177979193148
    H            1.213347708396    -0.056851772748     2.090081128386
    C            1.547339946343    -0.222879126605    -0.018979423110
    H            1.503048668967    -1.316293659176    -0.069947393620
    H            1.117746738871     0.149353926780    -0.952754396007
}

set globals {
  reference rhf
  basis aug-cc-pvtz
  scf_type df
  mp_type df
  freeze_core true
}
energy('mp2.5')
--------------------------------------------------------------------------
/usr/local/hpc5/psi4conda/lib/python2.7/site-packages/v2rdm_casscf/v2rdm_casscf.so loaded.

  Memory set to  30.000 GiB by Python script.

*** tstart() called on wr42
*** at Fri Sep 23 09:09:29 2016


         ---------------------------------------------------------
                                   SCF
            by Justin Turney, Rob Parrish, and Andy Simmonett
                              RHF Reference
                       12 Threads,  30000 MiB Core
         ---------------------------------------------------------

  ==> Geometry <==

    Molecular point group: c1
    Full point group: C1

    Geometry (in Angstrom), charge = 0, multiplicity = 1:

       Center              X                  Y                   Z               Mass       
    ------------   -----------------  -----------------  -----------------  -----------------
           C         -3.823673374369     0.256843488715    -1.130282884258    12.000000000000
           H         -4.862723855855    -0.063557200642    -1.058005479069     1.007825032070
           H         -3.414974884909    -0.137666921694    -2.061386310956     1.007825032070
           H         -3.812269069852     1.345399415075    -1.198107089541     1.007825032070
           C          3.823675000933    -0.256838184607    -1.130278687404    12.000000000000
           H          4.862724385762     0.063565269196    -1.058000204289     1.007825032070
           H          3.414976408371     0.137671165495    -2.061382291712     1.007825032070
           H          3.812273666266    -1.345393939243    -1.198102943439     1.007825032070
           C         -3.003613393828    -0.217875451176     0.062864756518    12.000000000000
           H         -3.043619627413    -1.308517018970     0.128149281399     1.007825032070
           H         -3.442179800455     0.163858565920     0.988647304128     1.007825032070
           C          3.003612287155     0.217878179621     0.062868023607    12.000000000000
           H          3.442178317941    -0.163854734741     0.988650788618     1.007825032070
           H          3.043614915959     1.308519566776     0.128152701926     1.007825032070
           C         -1.547339406513     0.222877390172    -0.018980813288    12.000000000000
           H         -1.503044351756     1.316292179866    -0.069946897873     1.007825032070
           H         -1.117746692096    -0.149354997056    -0.952756584249     1.007825032070
           C         -0.718536307900    -0.257811071166     1.166627938901    12.000000000000
           H         -0.708974620908    -1.352579382704     1.177973082426     1.007825032070
           H         -1.213350184426     0.056841882033     2.090079607439     1.007825032070
           C          0.718535170112     0.257804368458     1.166630056384    12.000000000000
           H          0.708973206659     1.352572496994     1.177979193148     1.007825032070
           H          1.213347708396    -0.056851772748     2.090081128386     1.007825032070
           C          1.547339946343    -0.222879126605    -0.018979423110    12.000000000000
           H          1.503048668967    -1.316293659176    -0.069947393620     1.007825032070
           H          1.117746738871     0.149353926780    -0.952754396007     1.007825032070

  Running in c1 symmetry.

  Rotational constants: A =      0.15022  B =      0.02078  C =      0.01906 [cm^-1]
  Rotational constants: A =   4503.40122  B =    622.94227  C =    571.54499 [MHz]
  Nuclear repulsion =  383.064062544524745

  Charge       = 0
  Multiplicity = 1
  Electrons    = 66
  Nalpha       = 33
  Nbeta        = 33

  ==> Algorithm <==

  SCF Algorithm Type is DF.
  DIIS enabled.
  MOM disabled.
  Fractional occupation disabled.
  Guess Type is SAD.
  Energy threshold   = 1.00e-08
  Density threshold  = 1.00e-08
  Integral threshold = 0.00e+00

  ==> Primary Basis <==

  Basis Set: AUG-CC-PVTZ
    Number of shells: 274
    Number of basis function: 782
    Number of Cartesian functions: 890
    Spherical Harmonics?: true
    Max angular momentum: 3

  ==> Pre-Iterations <==

   -------------------------------------------------------
    Irrep   Nso     Nmo     Nalpha   Nbeta   Ndocc  Nsocc
   -------------------------------------------------------
     A        782     782       0       0       0       0
   -------------------------------------------------------
    Total     782     782      33      33      33       0
   -------------------------------------------------------

  ==> Integral Setup <==

  ==> DFJK: Density-Fitted J/K Matrices <==

    J tasked:                  Yes
    K tasked:                  Yes
    wK tasked:                  No
    OpenMP threads:             12
    Integrals threads:          12
    Memory (MB):             21457
    Algorithm:                Core
    Integral Cache:           SAVE
    Schwarz Cutoff:          1E-12
    Fitting Condition:       1E-12

   => Auxiliary Basis Set <=

  Basis Set: 
    Number of shells: 492
    Number of basis function: 1660
    Number of Cartesian functions: 2038
    Spherical Harmonics?: true
    Max angular momentum: 4

  Minimum eigenvalue in the overlap matrix is 2.3289072290E-06.
  Using Symmetric Orthogonalization.
  SCF Guess: Superposition of Atomic Densities via on-the-fly atomic UHF.

  ==> Iterations <==

                           Total Energy        Delta E     RMS |[F,P]|

   @DF-RHF iter   0:  -316.68499821931141   -3.16685e+02   6.87721e-03 
   @DF-RHF iter   1:  -313.26004399308738    3.42495e+00   8.01376e-04 
   @DF-RHF iter   2:  -313.50382292166591   -2.43779e-01   3.12931e-04 DIIS
   @DF-RHF iter   3:  -313.53990189626802   -3.60790e-02   1.05235e-04 DIIS
   @DF-RHF iter   4:  -313.54575904743513   -5.85715e-03   1.73142e-05 DIIS
   @DF-RHF iter   5:  -313.54594858185578   -1.89534e-04   5.32558e-06 DIIS
   @DF-RHF iter   6:  -313.54596314720015   -1.45653e-05   1.38432e-06 DIIS
   @DF-RHF iter   7:  -313.54596443329172   -1.28609e-06   2.68427e-07 DIIS
   @DF-RHF iter   8:  -313.54596448366101   -5.03693e-08   8.17984e-08 DIIS
   @DF-RHF iter   9:  -313.54596448730013   -3.63912e-09   2.21006e-08 DIIS
   @DF-RHF iter  10:  -313.54596448758662   -2.86491e-10   5.64963e-09 DIIS

  ==> Post-Iterations <==

    Orbital Energies (a.u.)
    -----------------------

    Doubly Occupied:                                                      

       1A    -11.212307     2A    -11.212306     3A    -11.210705  
       4A    -11.210157     5A    -11.209373     6A    -11.209310  
       7A    -11.207007     8A    -11.207007     9A     -1.093628  
      10A     -1.061280    11A     -1.012808    12A     -0.946894  
      13A     -0.882197    14A     -0.811389    15A     -0.795860  
      16A     -0.770028    17A     -0.648308    18A     -0.637152  
      19A     -0.597123    20A     -0.592202    21A     -0.569794  
      22A     -0.564088    23A     -0.552502    24A     -0.522804  
      25A     -0.522397    26A     -0.499060    27A     -0.483386  
      28A     -0.471667    29A     -0.468361    30A     -0.460146  
      31A     -0.454872    32A     -0.441428    33A     -0.433860  

    Virtual:                                                              

      34A      0.030421    35A      0.031885    36A      0.034123  
      37A      0.036153    38A      0.043680    39A      0.048181  
      40A      0.048997    41A      0.054112    42A      0.059195  
      43A      0.062237    44A      0.065984    45A      0.069932  
      46A      0.074600    47A      0.081643    48A      0.085094  
      49A      0.091034    50A      0.092792    51A      0.107160  
      52A      0.112795    53A      0.115437    54A      0.117668  
      55A      0.118248    56A      0.130219    57A      0.130815  
      58A      0.134025    59A      0.141215    60A      0.142456  
      61A      0.145538    62A      0.149025    63A      0.153285  
      64A      0.155749    65A      0.160099    66A      0.160785  
      67A      0.164214    68A      0.166083    69A      0.171666  
      70A      0.180085    71A      0.181480    72A      0.187534  
      73A      0.190748    74A      0.198240    75A      0.201159  
      76A      0.212107    77A      0.222319    78A      0.223763  
      79A      0.229175    80A      0.238417    81A      0.239941  
      82A      0.246433    83A      0.258270    84A      0.259654  
      85A      0.264598    86A      0.266357    87A      0.267693  
      88A      0.269308    89A      0.284367    90A      0.284735  
      91A      0.292164    92A      0.296941    93A      0.302366  
      94A      0.307379    95A      0.309794    96A      0.317987  
      97A      0.320516    98A      0.324570    99A      0.332383  
     100A      0.334197   101A      0.342281   102A      0.342535  
     103A      0.342889   104A      0.357891   105A      0.360539  
     106A      0.361330   107A      0.365456   108A      0.368616  
     109A      0.369143   110A      0.373071   111A      0.376162  
     112A      0.379225   113A      0.384817   114A      0.390786  
     115A      0.391013   116A      0.395475   117A      0.396950  
     118A      0.396956   119A      0.400101   120A      0.400910  
     121A      0.404974   122A      0.412016   123A      0.414841  
     124A      0.423241   125A      0.428717   126A      0.433169  
     127A      0.435399   128A      0.436508   129A      0.447067  
     130A      0.448811   131A      0.453592   132A      0.454099  
     133A      0.457640   134A      0.460462   135A      0.463205  
     136A      0.464900   137A      0.465641   138A      0.471859  
     139A      0.479906   140A      0.479983   141A      0.480578  
     142A      0.487195   143A      0.491241   144A      0.492296  
     145A      0.498407   146A      0.506545   147A      0.510484  
     148A      0.511340   149A      0.512915   150A      0.517982  
     151A      0.521218   152A      0.525817   153A      0.529548  
     154A      0.532742   155A      0.536283   156A      0.541355  
     157A      0.541806   158A      0.547963   159A      0.554358  
     160A      0.556805   161A      0.558458   162A      0.564825  
     163A      0.570096   164A      0.583608   165A      0.583884  
     166A      0.587299   167A      0.589320   168A      0.597090  
     169A      0.603769   170A      0.604445   171A      0.609389  
     172A      0.614497   173A      0.615897   174A      0.619980  
     175A      0.627458   176A      0.633596   177A      0.634515  
     178A      0.644209   179A      0.649409   180A      0.653760  
     181A      0.663324   182A      0.665817   183A      0.675681  
     184A      0.685584   185A      0.691248   186A      0.692372  
     187A      0.710573   188A      0.712730   189A      0.713538  
     190A      0.718062   191A      0.721795   192A      0.728979  
     193A      0.729519   194A      0.747736   195A      0.748216  
     196A      0.767041   197A      0.770686   198A      0.775600  
     199A      0.775919   200A      0.794706   201A      0.795397  
     202A      0.809184   203A      0.810022   204A      0.828248  
     205A      0.837773   206A      0.838511   207A      0.847280  
     208A      0.849621   209A      0.851554   210A      0.859624  
     211A      0.861672   212A      0.867181   213A      0.869691  
     214A      0.876961   215A      0.879931   216A      0.883384  
     217A      0.885253   218A      0.897037   219A      0.899886  
     220A      0.901652   221A      0.911584   222A      0.913010  
     223A      0.914832   224A      0.924746   225A      0.927406  
     226A      0.934763   227A      0.936072   228A      0.938583  
     229A      0.941400   230A      0.948374   231A      0.949496  
     232A      0.950893   233A      0.953174   234A      0.960093  
     235A      0.966898   236A      0.967283   237A      0.978295  
     238A      0.980362   239A      0.993581   240A      0.995168  
     241A      1.004399   242A      1.005386   243A      1.015950  
     244A      1.018342   245A      1.024159   246A      1.027555  
     247A      1.031525   248A      1.037704   249A      1.042326  
     250A      1.047897   251A      1.051390   252A      1.064488  
     253A      1.068342   254A      1.072538   255A      1.080074  
     256A      1.084879   257A      1.086678   258A      1.098368  
     259A      1.108619   260A      1.110426   261A      1.112746  
     262A      1.117936   263A      1.124067   264A      1.130933  
     265A      1.132056   266A      1.136058   267A      1.138638  
     268A      1.146300   269A      1.151399   270A      1.158380  
     271A      1.163900   272A      1.171448   273A      1.172225  
     274A      1.184394   275A      1.185284   276A      1.189781  
     277A      1.193418   278A      1.195244   279A      1.200230  
     280A      1.200511   281A      1.205665   282A      1.213939  
     283A      1.215354   284A      1.218066   285A      1.229386  
     286A      1.238403   287A      1.244673   288A      1.245885  
     289A      1.255239   290A      1.256856   291A      1.268284  
     292A      1.270261   293A      1.277619   294A      1.279673  
     295A      1.285196   296A      1.296514   297A      1.297510  
     298A      1.298160   299A      1.303191   300A      1.316845  
     301A      1.319298   302A      1.320657   303A      1.325993  
     304A      1.330223   305A      1.341685   306A      1.347014  
     307A      1.351570   308A      1.364676   309A      1.371516  
     310A      1.374363   311A      1.381711   312A      1.388066  
     313A      1.393749   314A      1.397998   315A      1.404550  
     316A      1.417345   317A      1.432976   318A      1.433954  
     319A      1.442494   320A      1.449883   321A      1.456436  
     322A      1.462746   323A      1.481414   324A      1.486082  
     325A      1.492809   326A      1.502091   327A      1.504590  
     328A      1.517382   329A      1.517792   330A      1.534339  
     331A      1.544139   332A      1.547738   333A      1.553756  
     334A      1.559006   335A      1.575327   336A      1.578160  
     337A      1.580219   338A      1.588525   339A      1.602930  
     340A      1.603583   341A      1.609206   342A      1.617966  
     343A      1.631303   344A      1.634339   345A      1.645891  
     346A      1.649148   347A      1.649537   348A      1.658664  
     349A      1.666110   350A      1.671800   351A      1.672908  
     352A      1.683887   353A      1.692569   354A      1.693104  
     355A      1.694618   356A      1.698517   357A      1.698630  
     358A      1.713653   359A      1.717276   360A      1.718174  
     361A      1.727255   362A      1.729786   363A      1.736808  
     364A      1.752814   365A      1.760927   366A      1.763902  
     367A      1.763904   368A      1.773044   369A      1.775780  
     370A      1.780814   371A      1.788048   372A      1.789958  
     373A      1.793541   374A      1.798057   375A      1.803875  
     376A      1.816749   377A      1.817072   378A      1.820425  
     379A      1.824351   380A      1.828620   381A      1.833487  
     382A      1.845607   383A      1.852365   384A      1.858629  
     385A      1.859035   386A      1.868185   387A      1.882125  
     388A      1.887201   389A      1.890046   390A      1.902195  
     391A      1.914082   392A      1.919108   393A      1.925372  
     394A      1.925404   395A      1.941588   396A      1.943186  
     397A      1.954054   398A      1.956973   399A      1.965761  
     400A      1.973894   401A      1.977120   402A      1.987507  
     403A      1.988157   404A      1.994841   405A      2.003314  
     406A      2.005393   407A      2.015806   408A      2.016978  
     409A      2.030555   410A      2.032698   411A      2.050178  
     412A      2.052872   413A      2.057244   414A      2.075040  
     415A      2.090596   416A      2.091747   417A      2.101263  
     418A      2.109141   419A      2.121405   420A      2.122971  
     421A      2.131294   422A      2.143263   423A      2.143692  
     424A      2.146556   425A      2.158366   426A      2.171120  
     427A      2.173809   428A      2.180318   429A      2.193963  
     430A      2.199884   431A      2.211141   432A      2.231090  
     433A      2.232355   434A      2.249265   435A      2.255774  
     436A      2.257511   437A      2.263667   438A      2.270202  
     439A      2.278358   440A      2.288425   441A      2.295357  
     442A      2.309276   443A      2.317206   444A      2.329033  
     445A      2.329902   446A      2.337793   447A      2.348877  
     448A      2.350985   449A      2.364885   450A      2.365830  
     451A      2.375742   452A      2.390918   453A      2.400908  
     454A      2.409498   455A      2.415237   456A      2.427644  
     457A      2.430364   458A      2.452307   459A      2.457598  
     460A      2.478821   461A      2.479885   462A      2.491351  
     463A      2.508392   464A      2.509266   465A      2.522468  
     466A      2.526764   467A      2.558680   468A      2.560571  
     469A      2.581744   470A      2.590015   471A      2.600164  
     472A      2.601759   473A      2.631277   474A      2.647429  
     475A      2.659802   476A      2.691049   477A      2.708209  
     478A      2.758521   479A      2.758961   480A      2.811354  
     481A      2.825788   482A      2.833242   483A      2.865541  
     484A      2.869350   485A      2.897882   486A      2.945896  
     487A      2.963565   488A      2.984756   489A      3.031816  
     490A      3.090159   491A      3.116107   492A      3.158917  
     493A      3.280885   494A      3.283228   495A      3.301054  
     496A      3.401817   497A      3.425543   498A      3.443007  
     499A      3.459836   500A      3.465809   501A      3.474649  
     502A      3.486191   503A      3.493565   504A      3.500555  
     505A      3.523494   506A      3.528817   507A      3.539624  
     508A      3.541246   509A      3.560809   510A      3.569724  
     511A      3.576539   512A      3.602597   513A      3.603009  
     514A      3.604955   515A      3.613139   516A      3.636497  
     517A      3.641675   518A      3.663216   519A      3.668229  
     520A      3.677821   521A      3.692222   522A      3.698250  
     523A      3.699898   524A      3.714241   525A      3.714500  
     526A      3.717293   527A      3.734447   528A      3.749239  
     529A      3.756790   530A      3.766343   531A      3.776515  
     532A      3.777067   533A      3.798958   534A      3.800604  
     535A      3.806882   536A      3.815133   537A      3.823281  
     538A      3.825827   539A      3.828080   540A      3.850754  
     541A      3.852935   542A      3.857638   543A      3.858292  
     544A      3.864691   545A      3.871036   546A      3.881736  
     547A      3.895358   548A      3.902404   549A      3.916416  
     550A      3.918689   551A      3.938475   552A      3.947525  
     553A      3.947554   554A      3.960205   555A      3.961055  
     556A      3.977549   557A      3.981126   558A      3.984548  
     559A      3.990466   560A      3.996486   561A      4.003270  
     562A      4.011195   563A      4.017739   564A      4.018771  
     565A      4.027655   566A      4.041378   567A      4.048762  
     568A      4.049353   569A      4.053217   570A      4.059939  
     571A      4.073095   572A      4.086143   573A      4.092876  
     574A      4.100586   575A      4.104815   576A      4.110464  
     577A      4.125790   578A      4.137406   579A      4.158400  
     580A      4.159838   581A      4.177378   582A      4.181472  
     583A      4.208889   584A      4.210345   585A      4.228190  
     586A      4.231202   587A      4.238895   588A      4.240108  
     589A      4.253141   590A      4.254198   591A      4.264099  
     592A      4.271060   593A      4.276758   594A      4.299364  
     595A      4.306113   596A      4.323540   597A      4.333737  
     598A      4.340757   599A      4.356503   600A      4.368919  
     601A      4.369471   602A      4.380562   603A      4.392335  
     604A      4.404664   605A      4.406128   606A      4.416979  
     607A      4.440022   608A      4.453702   609A      4.476392  
     610A      4.481966   611A      4.493396   612A      4.504743  
     613A      4.540826   614A      4.545033   615A      4.550696  
     616A      4.553980   617A      4.565675   618A      4.581779  
     619A      4.586345   620A      4.603365   621A      4.620511  
     622A      4.642380   623A      4.655741   624A      4.657287  
     625A      4.677196   626A      4.695929   627A      4.697419  
     628A      4.701954   629A      4.704145   630A      4.720188  
     631A      4.724863   632A      4.743879   633A      4.744790  
     634A      4.763895   635A      4.782843   636A      4.784986  
     637A      4.793016   638A      4.819115   639A      4.823536  
     640A      4.834244   641A      4.835066   642A      4.847583  
     643A      4.860533   644A      4.864820   645A      4.874562  
     646A      4.880020   647A      4.885860   648A      4.892718  
     649A      4.893515   650A      4.918742   651A      4.921560  
     652A      4.927096   653A      4.961682   654A      4.962212  
     655A      4.977477   656A      4.979163   657A      5.001490  
     658A      5.028347   659A      5.029160   660A      5.030730  
     661A      5.050070   662A      5.068259   663A      5.091127  
     664A      5.110953   665A      5.126044   666A      5.131046  
     667A      5.137888   668A      5.148135   669A      5.161164  
     670A      5.171891   671A      5.187967   672A      5.198747  
     673A      5.210236   674A      5.212327   675A      5.230748  
     676A      5.243653   677A      5.248066   678A      5.256584  
     679A      5.269625   680A      5.276695   681A      5.279647  
     682A      5.288570   683A      5.317622   684A      5.327201  
     685A      5.348571   686A      5.353113   687A      5.373793  
     688A      5.378817   689A      5.378950   690A      5.400286  
     691A      5.404380   692A      5.408047   693A      5.418841  
     694A      5.439456   695A      5.441659   696A      5.447608  
     697A      5.456765   698A      5.471570   699A      5.479608  
     700A      5.480182   701A      5.499153   702A      5.519092  
     703A      5.525404   704A      5.540286   705A      5.555827  
     706A      5.564110   707A      5.574478   708A      5.598812  
     709A      5.607247   710A      5.612156   711A      5.626754  
     712A      5.636900   713A      5.662152   714A      5.673347  
     715A      5.687543   716A      5.696276   717A      5.705272  
     718A      5.723461   719A      5.740547   720A      5.741307  
     721A      5.768803   722A      5.776647   723A      5.780410  
     724A      5.797215   725A      5.798025   726A      5.824227  
     727A      5.846749   728A      5.850525   729A      5.880745  
     730A      5.887045   731A      5.901081   732A      5.935210  
     733A      5.939437   734A      5.972911   735A      5.983257  
     736A      5.994250   737A      6.038498   738A      6.054916  
     739A      6.084479   740A      6.114562   741A      6.136875  
     742A      6.144116   743A      6.169231   744A      6.185890  
     745A      6.209959   746A      6.224126   747A      6.232697  
     748A      6.246081   749A      6.262130   750A      6.269025  
     751A      6.289593   752A      6.301772   753A      6.302498  
     754A      6.316170   755A      6.344752   756A      6.352448  
     757A      6.410423   758A      6.420403   759A      6.542396  
     760A      6.547119   761A      6.605822   762A      6.653036  
     763A      6.714015   764A      6.756450   765A      6.776872  
     766A      6.780072   767A      6.841251   768A      6.841819  
     769A      6.874369   770A      6.884142   771A      6.951005  
     772A      6.960213   773A      7.088836   774A      7.113076  
     775A     17.820757   776A     17.987960   777A     18.294345  
     778A     18.460722   779A     18.473459   780A     18.567853  
     781A     19.149225   782A     19.580318  

    Final Occupation by Irrep:
              A 
    DOCC [    33 ]

  Energy converged.

  @DF-RHF Final Energy:  -313.54596448758662

   => Energetics <=

    Nuclear Repulsion Energy =            383.0640625445247451
    One-Electron Energy =               -1181.2772425867258335
    Two-Electron Energy =                 484.6672155546146996
    DFT Exchange-Correlation Energy =       0.0000000000000000
    Empirical Dispersion Energy =           0.0000000000000000
    PCM Polarization Energy =               0.0000000000000000
    EFP Energy =                            0.0000000000000000
    Total Energy =                       -313.5459644875863887


  Saving occupied orbitals to File 180.

*** tstop() called on wr42 at Fri Sep 23 09:10:38 2016
Module time:
	user time   =     626.43 seconds =      10.44 minutes
	system time =      10.77 seconds =       0.18 minutes
	total time  =         69 seconds =       1.15 minutes
Total time:
	user time   =     626.43 seconds =      10.44 minutes
	system time =      10.77 seconds =       0.18 minutes
	total time  =         69 seconds =       1.15 minutes


Properties will be evaluated at   0.000000,   0.000000,   0.000000 Bohr

Properties computed using the SCF density matrix

  Nuclear Dipole Moment: (a.u.)
     X:     0.0000      Y:     0.0000      Z:    -1.7912

  Electronic Dipole Moment: (a.u.)
     X:    -0.0000      Y:    -0.0000      Z:     1.8282

  Dipole Moment: (a.u.)
     X:    -0.0000      Y:    -0.0000      Z:     0.0370     Total:     0.0370

  Dipole Moment: (Debye)
     X:    -0.0000      Y:    -0.0000      Z:     0.0939     Total:     0.0939


*** tstart() called on wr42
*** at Fri Sep 23 09:10:38 2016



  Options:
  ----------------------------------------------------------------------------
  ACTIVE                      => [  ]             
  BENCH                       => 0                
  CC_DIIS_MAX_VECS            => 6                
  CC_DIIS_MIN_VECS            => 2                
  CC_LAMBDA                   => FALSE            
  CC_MAXITER                  => 50               
  CC_TYPE                     => CONV             
  CHOLESKY                    => FALSE           !
  CHOLESKY_TOLERANCE          => 0.0001           
  CI_TYPE                     => CONV             
  COMPUT_S2                   => FALSE            
  CUBEPROP_BASIS_FUNCTIONS    => [  ]             
  CUBEPROP_FILEPATH           => .                
  CUBEPROP_ORBITALS           => [  ]             
  CUBEPROP_TASKS              => [  ]             
  CUBIC_BASIS_TOLERANCE       => 1e-12            
  CUBIC_BLOCK_MAX_POINTS      => 1000             
  CUBIC_GRID_OVERAGE          => [  ]             
  CUBIC_GRID_SPACING          => [  ]             
  CUTOFF                      => 8                
  DEBUG                       => 0                
  DERTYPE                     => NONE             
  DF_BASIS_CC                 => (empty)          
  DIE_IF_NOT_CONVERGED        => TRUE             
  DKH_ORDER                   => 2                
  DOCC                        => [  ]             
  DO_DIIS                     => TRUE             
  DO_LEVEL_SHIFT              => TRUE             
  DO_SCS                      => FALSE           !
  DO_SOS                      => FALSE           !
  E3_SCALE                    => 0.25             
  EKT_IP                      => FALSE            
  EXTERNAL_POTENTIAL_SYMMETRY => FALSE            
  E_CONVERGENCE               => 1e-06           !
  FREEZE_CORE                 => TRUE            !
  FROZEN_DOCC                 => [  ]             
  FROZEN_UOCC                 => [  ]             
  HESS_TYPE                   => HF               
  INTEGRAL_CUTOFF             => 9                
  INTEGRAL_PACKAGE            => ERD              
  LEVEL_SHIFT                 => 0.02             
  LINEQ_SOLVER                => CDGESV           
  LITERAL_CFOUR               => (empty)          
  MAT_NUM_COLUMN_PRINT        => 5                
  MAX_MOGRAD_CONVERGENCE      => 0.001            
  MOLDEN_WRITE                => FALSE            
  MO_DIIS_NUM_VECS            => 6                
  MO_MAXITER                  => 50               
  MO_STEP_MAX                 => 0.5              
  MP2_AMP_TYPE                => DIRECT           
  MP2_OS_SCALE                => 1.2              
  MP2_SOS_SCALE               => 1.3              
  MP2_SOS_SCALE2              => 1.2              
  MP2_SS_SCALE                => 0.333333         
  MP2_TYPE                    => DF               
  MP_TYPE                     => DF              !
  NAT_ORBS                    => FALSE            
  NUM_FROZEN_DOCC             => 0                
  NUM_FROZEN_UOCC             => 0                
  OCC_ORBS_PRINT              => FALSE            
  OEPROP                      => FALSE            
  OO_SCALE                    => 0.01             
  OPT_METHOD                  => QNR              
  ORB_OPT                     => FALSE           !
  ORB_RESP_SOLVER             => PCG              
  ORTH_TYPE                   => MGS              
  PCG_BETA_TYPE               => FLETCHER_REEVES  
  PCG_CONVERGENCE             => 1e-06            
  PCG_MAXITER                 => 50               
  PCM                         => FALSE            
  PCM_SCF_TYPE                => TOTAL            
  PPL_TYPE                    => AUTO             
  PRINT                       => 1                
  PRINT_NOONS                 => 3                
  PROPERTIES                  => [  ]             
  PROPERTIES_ORIGIN           => [  ]             
  PUREAM                      => TRUE             
  QCHF                        => FALSE            
  QC_MODULE                   => (empty)          
  RAS1                        => [  ]             
  RAS2                        => [  ]             
  RAS3                        => [  ]             
  RAS4                        => [  ]             
  READ_SCF_3INDEX             => TRUE             
  REGULARIZATION              => FALSE            
  REG_PARAM                   => 0.4              
  RELATIVISTIC                => NO               
  REL_BASIS                   => (empty)          
  RESTRICTED_DOCC             => [  ]             
  RESTRICTED_UOCC             => [  ]             
  RMS_MOGRAD_CONVERGENCE      => 1e-06            
  RUN_CCTRANSORT              => TRUE             
  R_CONVERGENCE               => 1e-05            
  SCS_TYPE                    => SCS              
  SOCC                        => [  ]             
  SOS_TYPE                    => SOS              
  TRIPLES_IABC_TYPE           => DISK             
  UNITS                       => ANGSTROMS        
  WFN                         => SCF              
  WFN_TYPE                    => DF-OMP2.5       !
  WRITER_FILE_LABEL           => (empty)          


 ============================================================================== 
 ============================================================================== 
 ============================================================================== 

                    DF-MP2.5  
              Program Written by Ugur Bozkaya
              Latest Revision April 17, 2016

 ============================================================================== 
 ============================================================================== 
 ============================================================================== 

	MO spaces... 

	 FC   OCC   VIR   FV 
	----------------------
	  8   25   749    0

	Number of basis functions in the DF-CC basis: 1676

	Available memory                      :  28610.23 MB 
	Memory requirement for 3-index ints   :   7420.87 MB 
	Memory requirement for DF-CC int trans:  22482.42 MB 
	Memory requirement for CC contractions:  18644.11 MB 
	Total memory requirement for DF+CC int:  26064.98 MB 
	Memory requirement for Wabef term     :  20227.74 MB 

	Computing DF-MP2 energy ... 
	======================================================================= 
	Nuclear Repulsion Energy (a.u.)    :   383.06406254452475
	DF-HF Energy (a.u.)                :  -313.54596448758662
	REF Energy (a.u.)                  :  -313.54596448758662
	DF-MP2 Correlation Energy (a.u.)   :    -1.43857934236851
	DF-MP2 Total Energy (a.u.)         :  -314.98454382995510
	======================================================================= 

	======================================================================= 
	================ MP2.5 FINAL RESULTS ================================== 
	======================================================================= 
	Nuclear Repulsion Energy (a.u.)    :   383.06406254452475
	SCF Energy (a.u.)                  :  -313.54596448758662
	REF Energy (a.u.)                  :  -313.54596448758662
	DF-MP3 Correlation Energy (a.u.)   :    -1.52560431368101
	DF-MP3 Total Energy (a.u.)         :  -315.07156880126763
	DF-MP2.5 Correlation Energy (a.u.) :    -1.48209182802474
	DF-MP2.5 Total Energy (a.u.)       :  -315.02805631561137
	======================================================================= 


*** tstop() called on wr42 at Fri Sep 23 10:22:22 2016
Module time:
	user time   =   45436.17 seconds =     757.27 minutes
	system time =     699.60 seconds =      11.66 minutes
	total time  =       4304 seconds =      71.73 minutes
Total time:
	user time   =   46062.80 seconds =     767.71 minutes
	system time =     710.37 seconds =      11.84 minutes
	total time  =       4373 seconds =      72.88 minutes

*** Psi4 exiting successfully. Buy a developer a beer!
