    -----------------------------------------------------------------------
          Psi4: An Open-Source Ab Initio Electronic Structure Package
                              Psi4 1.0.0 Driver

                          Git: Rev {master} 6a9a71b dirty

    J. M. Turney, A. C. Simmonett, R. M. Parrish, E. G. Hohenstein,
    F. A. Evangelista, J. T. Fermann, B. J. Mintz, L. A. Burns, J. J. Wilke,
    M. L. Abrams, N. J. Russ, M. L. Leininger, C. L. Janssen, E. T. Seidl,
    W. D. Allen, H. F. Schaefer, R. A. King, E. F. Valeev, C. D. Sherrill,
    and T. D. Crawford, WIREs Comput. Mol. Sci. 2, 556-565 (2012)
    (doi: 10.1002/wcms.93)

                         Additional Contributions by
    A. E. DePrince, U. Bozkaya, A. Yu. Sokolov, D. G. A. Smith, R. Di Remigio,
    R. M. Richard, J. F. Gonthier, H. R. McAlexander, M. Saitow, and
    B. P. Pritchard
    -----------------------------------------------------------------------


    Psi4 started on: Sun Sep 25 08:53:06 2016

    Process ID:  18507
    PSI4DATADIR: /usr/local/hpc5/psi4conda/share/psi4
    Memory level set to 256.000 MB

  ==> Input File <==

--------------------------------------------------------------------------
memory 40 Gb

molecule molecule_09_psi {
0 1
    C           -0.583069420008    -3.608224731823    -0.831430489960
    H           -1.493067718652    -3.012333116453    -0.888693858199
    H           -0.878306313585    -4.655089018561    -0.764974653710
    H           -0.035989548306    -3.473336563313    -1.766115909887
    C            0.582979994038     3.608171907685    -0.831720980194
    H            0.035792676748     3.473226838173    -1.766335472560
    H            1.492971145028     3.012275715647    -0.889052144068
    H            0.878226001106     4.655039968097    -0.765363658716
    C            0.279704707238    -3.202316406289     0.358755951166
    H            1.124373157368    -3.889995611694     0.440322275449
    H           -0.296061010140    -3.307623056634     1.282434762992
    C           -0.279658039314     3.202339077679     0.358589784078
    H            0.296214950227     3.307698902958     1.282195772893
    H           -1.124313417146     3.890027806875     0.440212079245
    C            0.809279907476    -1.773465902316     0.261055855487
    H            1.402973862656    -1.671070558261    -0.653320724570
    H            1.490488644175    -1.584391592190     1.095710215438
    C           -0.281113663686    -0.708246670014     0.270703127291
    H           -0.912990218979    -0.847369649127     1.154454184480
    H           -0.931743427048    -0.829297329727    -0.599333534682
    C            0.281135577726     0.708260726030     0.270632179995
    H            0.913106462626     0.847432944528     1.154308405268
    H            0.931674373164     0.829258521937    -0.599480181951
    C           -0.809253119415     1.773485458999     0.261037805794
    H           -1.403049412921     1.671036278254    -0.653266737611
    H           -1.490370981173     1.584468322427     1.095779487811
}

set globals {
  reference rhf
  basis aug-cc-pvtz
  scf_type df
  mp_type df
  freeze_core true
}
energy('mp2.5')
--------------------------------------------------------------------------
/usr/local/hpc5/psi4conda/lib/python2.7/site-packages/v2rdm_casscf/v2rdm_casscf.so loaded.

  Memory set to  40.000 GiB by Python script.

*** tstart() called on wr39
*** at Sun Sep 25 08:53:07 2016


         ---------------------------------------------------------
                                   SCF
            by Justin Turney, Rob Parrish, and Andy Simmonett
                              RHF Reference
                       12 Threads,  40000 MiB Core
         ---------------------------------------------------------

  ==> Geometry <==

    Molecular point group: c1
    Full point group: C1

    Geometry (in Angstrom), charge = 0, multiplicity = 1:

       Center              X                  Y                   Z               Mass       
    ------------   -----------------  -----------------  -----------------  -----------------
           C         -0.583069420008    -3.608224731823    -0.831430489960    12.000000000000
           H         -1.493067718652    -3.012333116453    -0.888693858199     1.007825032070
           H         -0.878306313585    -4.655089018561    -0.764974653710     1.007825032070
           H         -0.035989548306    -3.473336563313    -1.766115909887     1.007825032070
           C          0.582979994038     3.608171907685    -0.831720980194    12.000000000000
           H          0.035792676748     3.473226838173    -1.766335472560     1.007825032070
           H          1.492971145028     3.012275715647    -0.889052144068     1.007825032070
           H          0.878226001106     4.655039968097    -0.765363658716     1.007825032070
           C          0.279704707238    -3.202316406289     0.358755951166    12.000000000000
           H          1.124373157368    -3.889995611694     0.440322275449     1.007825032070
           H         -0.296061010140    -3.307623056634     1.282434762992     1.007825032070
           C         -0.279658039314     3.202339077679     0.358589784078    12.000000000000
           H          0.296214950227     3.307698902958     1.282195772893     1.007825032070
           H         -1.124313417146     3.890027806875     0.440212079245     1.007825032070
           C          0.809279907476    -1.773465902316     0.261055855487    12.000000000000
           H          1.402973862656    -1.671070558261    -0.653320724570     1.007825032070
           H          1.490488644175    -1.584391592190     1.095710215438     1.007825032070
           C         -0.281113663686    -0.708246670014     0.270703127291    12.000000000000
           H         -0.912990218979    -0.847369649127     1.154454184480     1.007825032070
           H         -0.931743427048    -0.829297329727    -0.599333534682     1.007825032070
           C          0.281135577726     0.708260726030     0.270632179995    12.000000000000
           H          0.913106462626     0.847432944528     1.154308405268     1.007825032070
           H          0.931674373164     0.829258521937    -0.599480181951     1.007825032070
           C         -0.809253119415     1.773485458999     0.261037805794    12.000000000000
           H         -1.403049412921     1.671036278254    -0.653266737611     1.007825032070
           H         -1.490370981173     1.584468322427     1.095779487811     1.007825032070

  Running in c1 symmetry.

  Rotational constants: A =      0.18562  B =      0.02004  C =      0.01991 [cm^-1]
  Rotational constants: A =   5564.82594  B =    600.91732  C =    596.83773 [MHz]
  Nuclear repulsion =  385.130298940249077

  Charge       = 0
  Multiplicity = 1
  Electrons    = 66
  Nalpha       = 33
  Nbeta        = 33

  ==> Algorithm <==

  SCF Algorithm Type is DF.
  DIIS enabled.
  MOM disabled.
  Fractional occupation disabled.
  Guess Type is SAD.
  Energy threshold   = 1.00e-08
  Density threshold  = 1.00e-08
  Integral threshold = 0.00e+00

  ==> Primary Basis <==

  Basis Set: AUG-CC-PVTZ
    Number of shells: 274
    Number of basis function: 782
    Number of Cartesian functions: 890
    Spherical Harmonics?: true
    Max angular momentum: 3

  ==> Pre-Iterations <==

   -------------------------------------------------------
    Irrep   Nso     Nmo     Nalpha   Nbeta   Ndocc  Nsocc
   -------------------------------------------------------
     A        782     782       0       0       0       0
   -------------------------------------------------------
    Total     782     782      33      33      33       0
   -------------------------------------------------------

  ==> Integral Setup <==

  ==> DFJK: Density-Fitted J/K Matrices <==

    J tasked:                  Yes
    K tasked:                  Yes
    wK tasked:                  No
    OpenMP threads:             12
    Integrals threads:          12
    Memory (MB):             28610
    Algorithm:                Core
    Integral Cache:           SAVE
    Schwarz Cutoff:          1E-12
    Fitting Condition:       1E-12

   => Auxiliary Basis Set <=

  Basis Set: 
    Number of shells: 492
    Number of basis function: 1660
    Number of Cartesian functions: 2038
    Spherical Harmonics?: true
    Max angular momentum: 4

  Minimum eigenvalue in the overlap matrix is 2.9266982384E-06.
  Using Symmetric Orthogonalization.
  SCF Guess: Superposition of Atomic Densities via on-the-fly atomic UHF.

  ==> Iterations <==

                           Total Energy        Delta E     RMS |[F,P]|

   @DF-RHF iter   0:  -317.23527131699905   -3.17235e+02   7.18033e-03 
   @DF-RHF iter   1:  -313.33558639348576    3.89968e+00   6.22553e-04 
   @DF-RHF iter   2:  -313.52147564981453   -1.85889e-01   1.92116e-04 DIIS
   @DF-RHF iter   3:  -313.54139580967637   -1.99202e-02   7.48507e-05 DIIS
   @DF-RHF iter   4:  -313.54397595117689   -2.58014e-03   1.50131e-05 DIIS
   @DF-RHF iter   5:  -313.54412137865381   -1.45427e-04   3.23194e-06 DIIS
   @DF-RHF iter   6:  -313.54412806943628   -6.69078e-06   1.00706e-06 DIIS
   @DF-RHF iter   7:  -313.54412854521183   -4.75776e-07   2.03721e-07 DIIS
   @DF-RHF iter   8:  -313.54412856988529   -2.46735e-08   4.84763e-08 DIIS
   @DF-RHF iter   9:  -313.54412857125863   -1.37334e-09   1.38307e-08 DIIS
   @DF-RHF iter  10:  -313.54412857137845   -1.19826e-10   3.87726e-09 DIIS

  ==> Post-Iterations <==

    Orbital Energies (a.u.)
    -----------------------

    Doubly Occupied:                                                      

       1A    -11.212722     2A    -11.212722     3A    -11.210321  
       4A    -11.210264     5A    -11.209488     6A    -11.208916  
       7A    -11.206438     8A    -11.206438     9A     -1.093399  
      10A     -1.062109    11A     -1.009276    12A     -0.945031  
      13A     -0.886518    14A     -0.828545    15A     -0.773572  
      16A     -0.771075    17A     -0.648165    18A     -0.621594  
      19A     -0.618845    20A     -0.592321    21A     -0.581393  
      22A     -0.563748    23A     -0.536069    24A     -0.527437  
      25A     -0.516314    26A     -0.496435    27A     -0.489712  
      28A     -0.477445    29A     -0.461074    30A     -0.459529  
      31A     -0.452843    32A     -0.448483    33A     -0.428403  

    Virtual:                                                              

      34A      0.030487    35A      0.031704    36A      0.034247  
      37A      0.035965    38A      0.044440    39A      0.046947  
      40A      0.048793    41A      0.055151    42A      0.056914  
      43A      0.061886    44A      0.067710    45A      0.070281  
      46A      0.073434    47A      0.077195    48A      0.087770  
      49A      0.094615    50A      0.098066    51A      0.111651  
      52A      0.114268    53A      0.115796    54A      0.117905  
      55A      0.122692    56A      0.124650    57A      0.131097  
      58A      0.132693    59A      0.134054    60A      0.141067  
      61A      0.142769    62A      0.143643    63A      0.153813  
      64A      0.156326    65A      0.160981    66A      0.163531  
      67A      0.165744    68A      0.167945    69A      0.169538  
      70A      0.170916    71A      0.173451    72A      0.186455  
      73A      0.188796    74A      0.189781    75A      0.193933  
      76A      0.209926    77A      0.225502    78A      0.225898  
      79A      0.230894    80A      0.236764    81A      0.244320  
      82A      0.245423    83A      0.253747    84A      0.256727  
      85A      0.260500    86A      0.272437    87A      0.281215  
      88A      0.282061    89A      0.286800    90A      0.290222  
      91A      0.296136    92A      0.304985    93A      0.313421  
      94A      0.314175    95A      0.316551    96A      0.317526  
      97A      0.322856    98A      0.332743    99A      0.333181  
     100A      0.335515   101A      0.335723   102A      0.340119  
     103A      0.344167   104A      0.350471   105A      0.351876  
     106A      0.361313   107A      0.361656   108A      0.364359  
     109A      0.364954   110A      0.364958   111A      0.369227  
     112A      0.380520   113A      0.381781   114A      0.384515  
     115A      0.387229   116A      0.392817   117A      0.396199  
     118A      0.400042   119A      0.403861   120A      0.405005  
     121A      0.411505   122A      0.419762   123A      0.420771  
     124A      0.429378   125A      0.431856   126A      0.434589  
     127A      0.434977   128A      0.443304   129A      0.445475  
     130A      0.448371   131A      0.450872   132A      0.454004  
     133A      0.465112   134A      0.465747   135A      0.467766  
     136A      0.468331   137A      0.475696   138A      0.476622  
     139A      0.483507   140A      0.484129   141A      0.486456  
     142A      0.489616   143A      0.495979   144A      0.496059  
     145A      0.500486   146A      0.501223   147A      0.507242  
     148A      0.508527   149A      0.516724   150A      0.519276  
     151A      0.521687   152A      0.529342   153A      0.532256  
     154A      0.537149   155A      0.540070   156A      0.541504  
     157A      0.545469   158A      0.549122   159A      0.559993  
     160A      0.566234   161A      0.566714   162A      0.572942  
     163A      0.576665   164A      0.582029   165A      0.585309  
     166A      0.585637   167A      0.589301   168A      0.597462  
     169A      0.602123   170A      0.609221   171A      0.612619  
     172A      0.616560   173A      0.620422   174A      0.626558  
     175A      0.628390   176A      0.635253   177A      0.636318  
     178A      0.646326   179A      0.656296   180A      0.662702  
     181A      0.668600   182A      0.676368   183A      0.680080  
     184A      0.684238   185A      0.685332   186A      0.691953  
     187A      0.697930   188A      0.709205   189A      0.710043  
     190A      0.722337   191A      0.722784   192A      0.733491  
     193A      0.735033   194A      0.740745   195A      0.747896  
     196A      0.757358   197A      0.769003   198A      0.775798  
     199A      0.784398   200A      0.792952   201A      0.794028  
     202A      0.819066   203A      0.826076   204A      0.829222  
     205A      0.831307   206A      0.838505   207A      0.841168  
     208A      0.846222   209A      0.852102   210A      0.855730  
     211A      0.860191   212A      0.860515   213A      0.873686  
     214A      0.876319   215A      0.885255   216A      0.890378  
     217A      0.894492   218A      0.895273   219A      0.897784  
     220A      0.903948   221A      0.912832   222A      0.914399  
     223A      0.916914   224A      0.920249   225A      0.925590  
     226A      0.930370   227A      0.933763   228A      0.936793  
     229A      0.942135   230A      0.946161   231A      0.953859  
     232A      0.962575   233A      0.968899   234A      0.978784  
     235A      0.983172   236A      0.983421   237A      0.990545  
     238A      0.990818   239A      0.997318   240A      1.004107  
     241A      1.005006   242A      1.007421   243A      1.013979  
     244A      1.016157   245A      1.028520   246A      1.032055  
     247A      1.033645   248A      1.044283   249A      1.054089  
     250A      1.055292   251A      1.061869   252A      1.066704  
     253A      1.066762   254A      1.069692   255A      1.080527  
     256A      1.086938   257A      1.097014   258A      1.099705  
     259A      1.102465   260A      1.103072   261A      1.105053  
     262A      1.109965   263A      1.114367   264A      1.125784  
     265A      1.133190   266A      1.142190   267A      1.144101  
     268A      1.147060   269A      1.150323   270A      1.156825  
     271A      1.158845   272A      1.167912   273A      1.177032  
     274A      1.194715   275A      1.199998   276A      1.200308  
     277A      1.202956   278A      1.205205   279A      1.209015  
     280A      1.219325   281A      1.221712   282A      1.225907  
     283A      1.229174   284A      1.232230   285A      1.235469  
     286A      1.240612   287A      1.242291   288A      1.246947  
     289A      1.247097   290A      1.253487   291A      1.255322  
     292A      1.261469   293A      1.279022   294A      1.282582  
     295A      1.284534   296A      1.290893   297A      1.293104  
     298A      1.306009   299A      1.312615   300A      1.322376  
     301A      1.325619   302A      1.334835   303A      1.338423  
     304A      1.342560   305A      1.354381   306A      1.363201  
     307A      1.363626   308A      1.365610   309A      1.377055  
     310A      1.391927   311A      1.395959   312A      1.398297  
     313A      1.405122   314A      1.409643   315A      1.425237  
     316A      1.425347   317A      1.434366   318A      1.443948  
     319A      1.451104   320A      1.460106   321A      1.465780  
     322A      1.478653   323A      1.479290   324A      1.493413  
     325A      1.494563   326A      1.498995   327A      1.504620  
     328A      1.524108   329A      1.528270   330A      1.535520  
     331A      1.541891   332A      1.550417   333A      1.559113  
     334A      1.561538   335A      1.568482   336A      1.572191  
     337A      1.582867   338A      1.583087   339A      1.604266  
     340A      1.606983   341A      1.608866   342A      1.622991  
     343A      1.633063   344A      1.633929   345A      1.645647  
     346A      1.651631   347A      1.661461   348A      1.670846  
     349A      1.674225   350A      1.675637   351A      1.682567  
     352A      1.688757   353A      1.698342   354A      1.698784  
     355A      1.707341   356A      1.711664   357A      1.718185  
     358A      1.721174   359A      1.726380   360A      1.731016  
     361A      1.734256   362A      1.737933   363A      1.749326  
     364A      1.753856   365A      1.758733   366A      1.767279  
     367A      1.769567   368A      1.780341   369A      1.784356  
     370A      1.784859   371A      1.796649   372A      1.797127  
     373A      1.809159   374A      1.811825   375A      1.821630  
     376A      1.825422   377A      1.829340   378A      1.830795  
     379A      1.840620   380A      1.849627   381A      1.854450  
     382A      1.858277   383A      1.859474   384A      1.869867  
     385A      1.882051   386A      1.890460   387A      1.892467  
     388A      1.894657   389A      1.900405   390A      1.916988  
     391A      1.917207   392A      1.923961   393A      1.929132  
     394A      1.935554   395A      1.944991   396A      1.954078  
     397A      1.957898   398A      1.961980   399A      1.978917  
     400A      1.984786   401A      1.988282   402A      1.989260  
     403A      2.000486   404A      2.003123   405A      2.011374  
     406A      2.017912   407A      2.022724   408A      2.032443  
     409A      2.037642   410A      2.040432   411A      2.047199  
     412A      2.050199   413A      2.066351   414A      2.072475  
     415A      2.079099   416A      2.079974   417A      2.089269  
     418A      2.091659   419A      2.108219   420A      2.121035  
     421A      2.130604   422A      2.133972   423A      2.138770  
     424A      2.150140   425A      2.150453   426A      2.167293  
     427A      2.172758   428A      2.187301   429A      2.192322  
     430A      2.202039   431A      2.227619   432A      2.235165  
     433A      2.243427   434A      2.251264   435A      2.259687  
     436A      2.273204   437A      2.275493   438A      2.295226  
     439A      2.297028   440A      2.300451   441A      2.305584  
     442A      2.306828   443A      2.310505   444A      2.323508  
     445A      2.327457   446A      2.343374   447A      2.344958  
     448A      2.354342   449A      2.362283   450A      2.378499  
     451A      2.382791   452A      2.383661   453A      2.406717  
     454A      2.427531   455A      2.434654   456A      2.452609  
     457A      2.454535   458A      2.456895   459A      2.466181  
     460A      2.470040   461A      2.476246   462A      2.486978  
     463A      2.503294   464A      2.507549   465A      2.539668  
     466A      2.556343   467A      2.564088   468A      2.566166  
     469A      2.574095   470A      2.582547   471A      2.587492  
     472A      2.627454   473A      2.632623   474A      2.644963  
     475A      2.663818   476A      2.668848   477A      2.681101  
     478A      2.694557   479A      2.699995   480A      2.746891  
     481A      2.791334   482A      2.803296   483A      2.852502  
     484A      2.903609   485A      2.921149   486A      2.946689  
     487A      2.972954   488A      3.011348   489A      3.032331  
     490A      3.065912   491A      3.139588   492A      3.160132  
     493A      3.265216   494A      3.309937   495A      3.320432  
     496A      3.397002   497A      3.411531   498A      3.429339  
     499A      3.452819   500A      3.452949   501A      3.469293  
     502A      3.476115   503A      3.507357   504A      3.510836  
     505A      3.516371   506A      3.534690   507A      3.553965  
     508A      3.557588   509A      3.574147   510A      3.581900  
     511A      3.590446   512A      3.615614   513A      3.617904  
     514A      3.641343   515A      3.648423   516A      3.651032  
     517A      3.654677   518A      3.657964   519A      3.671486  
     520A      3.682019   521A      3.696462   522A      3.698419  
     523A      3.700484   524A      3.720400   525A      3.729945  
     526A      3.732395   527A      3.744318   528A      3.762284  
     529A      3.768832   530A      3.779929   531A      3.783412  
     532A      3.800017   533A      3.803181   534A      3.814539  
     535A      3.817705   536A      3.818081   537A      3.827780  
     538A      3.835484   539A      3.839735   540A      3.842396  
     541A      3.857557   542A      3.870133   543A      3.871229  
     544A      3.880712   545A      3.893385   546A      3.903169  
     547A      3.908478   548A      3.919755   549A      3.927183  
     550A      3.927683   551A      3.944758   552A      3.945257  
     553A      3.955613   554A      3.958887   555A      3.969668  
     556A      3.982765   557A      3.995023   558A      3.996317  
     559A      4.005094   560A      4.013734   561A      4.016513  
     562A      4.016883   563A      4.028869   564A      4.034761  
     565A      4.039003   566A      4.043565   567A      4.051770  
     568A      4.059459   569A      4.065704   570A      4.069465  
     571A      4.087699   572A      4.088204   573A      4.099903  
     574A      4.103981   575A      4.105700   576A      4.107358  
     577A      4.121630   578A      4.134150   579A      4.136128  
     580A      4.145767   581A      4.149903   582A      4.176694  
     583A      4.198309   584A      4.199966   585A      4.214727  
     586A      4.221809   587A      4.228519   588A      4.233793  
     589A      4.244249   590A      4.261183   591A      4.278464  
     592A      4.282786   593A      4.290384   594A      4.292917  
     595A      4.295445   596A      4.300934   597A      4.342304  
     598A      4.342579   599A      4.350817   600A      4.362148  
     601A      4.370565   602A      4.380997   603A      4.395809  
     604A      4.399204   605A      4.421068   606A      4.432349  
     607A      4.442522   608A      4.450293   609A      4.452296  
     610A      4.461715   611A      4.487365   612A      4.499451  
     613A      4.511912   614A      4.540377   615A      4.547874  
     616A      4.566553   617A      4.567333   618A      4.584858  
     619A      4.592792   620A      4.602969   621A      4.611629  
     622A      4.642799   623A      4.648976   624A      4.679545  
     625A      4.685401   626A      4.695475   627A      4.699151  
     628A      4.702341   629A      4.715421   630A      4.731079  
     631A      4.737328   632A      4.740260   633A      4.745686  
     634A      4.774365   635A      4.777574   636A      4.788174  
     637A      4.795987   638A      4.816010   639A      4.818851  
     640A      4.831832   641A      4.848238   642A      4.851690  
     643A      4.853382   644A      4.855639   645A      4.874718  
     646A      4.894763   647A      4.896407   648A      4.923756  
     649A      4.923934   650A      4.936113   651A      4.940020  
     652A      4.953140   653A      4.962118   654A      4.964407  
     655A      4.983006   656A      4.995758   657A      5.007739  
     658A      5.026201   659A      5.029531   660A      5.041671  
     661A      5.047970   662A      5.061146   663A      5.073439  
     664A      5.093167   665A      5.109330   666A      5.115580  
     667A      5.124399   668A      5.139299   669A      5.143265  
     670A      5.155089   671A      5.182132   672A      5.191505  
     673A      5.199273   674A      5.209361   675A      5.211366  
     676A      5.237266   677A      5.246719   678A      5.266335  
     679A      5.294091   680A      5.294468   681A      5.297419  
     682A      5.307739   683A      5.318444   684A      5.329270  
     685A      5.348652   686A      5.350035   687A      5.385826  
     688A      5.392220   689A      5.392366   690A      5.402165  
     691A      5.409597   692A      5.414822   693A      5.419369  
     694A      5.441511   695A      5.442808   696A      5.452529  
     697A      5.474888   698A      5.491519   699A      5.493679  
     700A      5.500860   701A      5.507752   702A      5.518525  
     703A      5.545056   704A      5.554045   705A      5.562702  
     706A      5.582460   707A      5.588018   708A      5.604123  
     709A      5.608191   710A      5.620421   711A      5.627225  
     712A      5.646488   713A      5.652196   714A      5.654698  
     715A      5.670383   716A      5.684538   717A      5.698206  
     718A      5.703197   719A      5.712370   720A      5.726478  
     721A      5.751047   722A      5.760700   723A      5.783643  
     724A      5.796378   725A      5.806541   726A      5.832202  
     727A      5.842606   728A      5.854727   729A      5.874147  
     730A      5.901636   731A      5.917669   732A      5.924543  
     733A      5.955265   734A      5.996951   735A      5.997425  
     736A      6.019956   737A      6.045541   738A      6.056344  
     739A      6.062200   740A      6.113702   741A      6.135182  
     742A      6.146124   743A      6.165110   744A      6.168167  
     745A      6.206338   746A      6.231646   747A      6.259049  
     748A      6.261255   749A      6.275123   750A      6.284322  
     751A      6.302041   752A      6.306728   753A      6.332187  
     754A      6.335880   755A      6.343927   756A      6.349783  
     757A      6.397876   758A      6.405638   759A      6.551786  
     760A      6.583216   761A      6.619638   762A      6.626749  
     763A      6.738463   764A      6.742308   765A      6.796509  
     766A      6.797707   767A      6.830406   768A      6.886949  
     769A      6.902036   770A      6.928584   771A      6.977266  
     772A      6.983535   773A      7.028779   774A      7.130726  
     775A     17.808394   776A     17.879811   777A     18.281555  
     778A     18.422071   779A     18.606314   780A     18.611160  
     781A     19.089028   782A     19.595235  

    Final Occupation by Irrep:
              A 
    DOCC [    33 ]

  Energy converged.

  @DF-RHF Final Energy:  -313.54412857137845

   => Energetics <=

    Nuclear Repulsion Energy =            385.1302989402490766
    One-Electron Energy =               -1185.4155579687928821
    Two-Electron Energy =                 486.7411304571650135
    DFT Exchange-Correlation Energy =       0.0000000000000000
    Empirical Dispersion Energy =           0.0000000000000000
    PCM Polarization Energy =               0.0000000000000000
    EFP Energy =                            0.0000000000000000
    Total Energy =                       -313.5441285713787920


  Saving occupied orbitals to File 180.

*** tstop() called on wr39 at Sun Sep 25 09:03:54 2016
Module time:
	user time   =     423.54 seconds =       7.06 minutes
	system time =       9.14 seconds =       0.15 minutes
	total time  =        647 seconds =      10.78 minutes
Total time:
	user time   =     423.54 seconds =       7.06 minutes
	system time =       9.14 seconds =       0.15 minutes
	total time  =        647 seconds =      10.78 minutes


Properties will be evaluated at   0.000000,   0.000000,   0.000000 Bohr

Properties computed using the SCF density matrix

  Nuclear Dipole Moment: (a.u.)
     X:    -0.0001      Y:    -0.0000      Z:    -1.3129

  Electronic Dipole Moment: (a.u.)
     X:     0.0001      Y:     0.0000      Z:     1.3476

  Dipole Moment: (a.u.)
     X:     0.0000      Y:    -0.0000      Z:     0.0347     Total:     0.0347

  Dipole Moment: (Debye)
     X:     0.0000      Y:    -0.0000      Z:     0.0881     Total:     0.0881


*** tstart() called on wr39
*** at Sun Sep 25 09:03:54 2016



  Options:
  ----------------------------------------------------------------------------
  ACTIVE                      => [  ]             
  BENCH                       => 0                
  CC_DIIS_MAX_VECS            => 6                
  CC_DIIS_MIN_VECS            => 2                
  CC_LAMBDA                   => FALSE            
  CC_MAXITER                  => 50               
  CC_TYPE                     => CONV             
  CHOLESKY                    => FALSE           !
  CHOLESKY_TOLERANCE          => 0.0001           
  CI_TYPE                     => CONV             
  COMPUT_S2                   => FALSE            
  CUBEPROP_BASIS_FUNCTIONS    => [  ]             
  CUBEPROP_FILEPATH           => .                
  CUBEPROP_ORBITALS           => [  ]             
  CUBEPROP_TASKS              => [  ]             
  CUBIC_BASIS_TOLERANCE       => 1e-12            
  CUBIC_BLOCK_MAX_POINTS      => 1000             
  CUBIC_GRID_OVERAGE          => [  ]             
  CUBIC_GRID_SPACING          => [  ]             
  CUTOFF                      => 8                
  DEBUG                       => 0                
  DERTYPE                     => NONE             
  DF_BASIS_CC                 => (empty)          
  DIE_IF_NOT_CONVERGED        => TRUE             
  DKH_ORDER                   => 2                
  DOCC                        => [  ]             
  DO_DIIS                     => TRUE             
  DO_LEVEL_SHIFT              => TRUE             
  DO_SCS                      => FALSE           !
  DO_SOS                      => FALSE           !
  E3_SCALE                    => 0.25             
  EKT_IP                      => FALSE            
  EXTERNAL_POTENTIAL_SYMMETRY => FALSE            
  E_CONVERGENCE               => 1e-06           !
  FREEZE_CORE                 => TRUE            !
  FROZEN_DOCC                 => [  ]             
  FROZEN_UOCC                 => [  ]             
  HESS_TYPE                   => HF               
  INTEGRAL_CUTOFF             => 9                
  INTEGRAL_PACKAGE            => ERD              
  LEVEL_SHIFT                 => 0.02             
  LINEQ_SOLVER                => CDGESV           
  LITERAL_CFOUR               => (empty)          
  MAT_NUM_COLUMN_PRINT        => 5                
  MAX_MOGRAD_CONVERGENCE      => 0.001            
  MOLDEN_WRITE                => FALSE            
  MO_DIIS_NUM_VECS            => 6                
  MO_MAXITER                  => 50               
  MO_STEP_MAX                 => 0.5              
  MP2_AMP_TYPE                => DIRECT           
  MP2_OS_SCALE                => 1.2              
  MP2_SOS_SCALE               => 1.3              
  MP2_SOS_SCALE2              => 1.2              
  MP2_SS_SCALE                => 0.333333         
  MP2_TYPE                    => DF               
  MP_TYPE                     => DF              !
  NAT_ORBS                    => FALSE            
  NUM_FROZEN_DOCC             => 0                
  NUM_FROZEN_UOCC             => 0                
  OCC_ORBS_PRINT              => FALSE            
  OEPROP                      => FALSE            
  OO_SCALE                    => 0.01             
  OPT_METHOD                  => QNR              
  ORB_OPT                     => FALSE           !
  ORB_RESP_SOLVER             => PCG              
  ORTH_TYPE                   => MGS              
  PCG_BETA_TYPE               => FLETCHER_REEVES  
  PCG_CONVERGENCE             => 1e-06            
  PCG_MAXITER                 => 50               
  PCM                         => FALSE            
  PCM_SCF_TYPE                => TOTAL            
  PPL_TYPE                    => AUTO             
  PRINT                       => 1                
  PRINT_NOONS                 => 3                
  PROPERTIES                  => [  ]             
  PROPERTIES_ORIGIN           => [  ]             
  PUREAM                      => TRUE             
  QCHF                        => FALSE            
  QC_MODULE                   => (empty)          
  RAS1                        => [  ]             
  RAS2                        => [  ]             
  RAS3                        => [  ]             
  RAS4                        => [  ]             
  READ_SCF_3INDEX             => TRUE             
  REGULARIZATION              => FALSE            
  REG_PARAM                   => 0.4              
  RELATIVISTIC                => NO               
  REL_BASIS                   => (empty)          
  RESTRICTED_DOCC             => [  ]             
  RESTRICTED_UOCC             => [  ]             
  RMS_MOGRAD_CONVERGENCE      => 1e-06            
  RUN_CCTRANSORT              => TRUE             
  R_CONVERGENCE               => 1e-05            
  SCS_TYPE                    => SCS              
  SOCC                        => [  ]             
  SOS_TYPE                    => SOS              
  TRIPLES_IABC_TYPE           => DISK             
  UNITS                       => ANGSTROMS        
  WFN                         => SCF              
  WFN_TYPE                    => DF-OMP2.5       !
  WRITER_FILE_LABEL           => (empty)          


 ============================================================================== 
 ============================================================================== 
 ============================================================================== 

                    DF-MP2.5  
              Program Written by Ugur Bozkaya
              Latest Revision April 17, 2016

 ============================================================================== 
 ============================================================================== 
 ============================================================================== 

	MO spaces... 

	 FC   OCC   VIR   FV 
	----------------------
	  8   25   749    0

	Number of basis functions in the DF-CC basis: 1676

	Available memory                      :  38146.97 MB 
	Memory requirement for 3-index ints   :   7420.87 MB 
	Memory requirement for DF-CC int trans:  22482.42 MB 
	Memory requirement for CC contractions:  18644.11 MB 
	Total memory requirement for DF+CC int:  26064.98 MB 
	Memory requirement for Wabef term     :  20227.74 MB 

	Computing DF-MP2 energy ... 
	======================================================================= 
	Nuclear Repulsion Energy (a.u.)    :   385.13029894024908
	DF-HF Energy (a.u.)                :  -313.54412857137845
	REF Energy (a.u.)                  :  -313.54412857137845
	DF-MP2 Correlation Energy (a.u.)   :    -1.43955649379188
	DF-MP2 Total Energy (a.u.)         :  -314.98368506517033
	======================================================================= 

	======================================================================= 
	================ MP2.5 FINAL RESULTS ================================== 
	======================================================================= 
	Nuclear Repulsion Energy (a.u.)    :   385.13029894024908
	SCF Energy (a.u.)                  :  -313.54412857137845
	REF Energy (a.u.)                  :  -313.54412857137845
	DF-MP3 Correlation Energy (a.u.)   :    -1.52641070629124
	DF-MP3 Total Energy (a.u.)         :  -315.07053927766970
	DF-MP2.5 Correlation Energy (a.u.) :    -1.48298360004157
	DF-MP2.5 Total Energy (a.u.)       :  -315.02711217142001
	======================================================================= 


*** tstop() called on wr39 at Sun Sep 25 11:48:32 2016
Module time:
	user time   =   37632.07 seconds =     627.20 minutes
	system time =     694.48 seconds =      11.57 minutes
	total time  =       9878 seconds =     164.63 minutes
Total time:
	user time   =   38055.88 seconds =     634.26 minutes
	system time =     703.63 seconds =      11.73 minutes
	total time  =      10525 seconds =     175.42 minutes

*** Psi4 exiting successfully. Buy a developer a beer!
