    -----------------------------------------------------------------------
          Psi4: An Open-Source Ab Initio Electronic Structure Package
                              Psi4 1.0.0 Driver

                          Git: Rev {master} 6a9a71b dirty

    J. M. Turney, A. C. Simmonett, R. M. Parrish, E. G. Hohenstein,
    F. A. Evangelista, J. T. Fermann, B. J. Mintz, L. A. Burns, J. J. Wilke,
    M. L. Abrams, N. J. Russ, M. L. Leininger, C. L. Janssen, E. T. Seidl,
    W. D. Allen, H. F. Schaefer, R. A. King, E. F. Valeev, C. D. Sherrill,
    and T. D. Crawford, WIREs Comput. Mol. Sci. 2, 556-565 (2012)
    (doi: 10.1002/wcms.93)

                         Additional Contributions by
    A. E. DePrince, U. Bozkaya, A. Yu. Sokolov, D. G. A. Smith, R. Di Remigio,
    R. M. Richard, J. F. Gonthier, H. R. McAlexander, M. Saitow, and
    B. P. Pritchard
    -----------------------------------------------------------------------


    Psi4 started on: Wed Sep 21 11:02:53 2016

    Process ID:   6555
    PSI4DATADIR: /usr/local/hpc5/psi4conda/share/psi4
    Memory level set to 256.000 MB

  ==> Input File <==

--------------------------------------------------------------------------
memory 60 Gb

molecule molecule_2 {
0 1
C         -2.07600       -0.67000        0.16800
H         -2.02800       -0.79300        1.24900
H         -1.61800       -1.54400       -0.28800
H         -3.12500       -0.66000       -0.12000
C          2.40900       -0.19000        0.12200
H          3.05000       -0.98600       -0.25000
H          2.78800        0.75500       -0.26200
H          2.49800       -0.16600        1.20600
C          0.96300       -0.39500       -0.29100
H          0.61900       -1.36300        0.07200
H          0.89000       -0.42500       -1.38000
C          0.05700        0.70300        0.23500
H          0.06600        0.67900        1.32800
H          0.47400        1.67000       -0.05600
C         -1.37800        0.60900       -0.25700
H         -1.93800        1.46600        0.11700
H         -1.38600        0.68500       -1.34600
}

set globals {
  reference rhf
  g_convergence gau_verytight
  basis aug-cc-pvtz
  freeze_core true
}
optimize('mp2')
--------------------------------------------------------------------------
/usr/local/hpc5/psi4conda/lib/python2.7/site-packages/v2rdm_casscf/v2rdm_casscf.so loaded.

  Memory set to  60.000 GiB by Python script.
gradient() will perform analytic gradient computation.
    SCF Algorithm Type (re)set to DF.

*** tstart() called on wr37
*** at Wed Sep 21 11:02:54 2016


         ---------------------------------------------------------
                                   SCF
            by Justin Turney, Rob Parrish, and Andy Simmonett
                              RHF Reference
                       12 Threads,  60000 MiB Core
         ---------------------------------------------------------

  ==> Geometry <==

    Molecular point group: c1
    Full point group: C1

    Geometry (in Angstrom), charge = 0, multiplicity = 1:

       Center              X                  Y                   Z               Mass       
    ------------   -----------------  -----------------  -----------------  -----------------
           C         -2.075892768450    -0.669953717695     0.168053919143    12.000000000000
           H         -2.027892768450    -0.792953717695     1.249053919143     1.007825032070
           H         -1.617892768450    -1.543953717695    -0.287946080857     1.007825032070
           H         -3.124892768450    -0.659953717695    -0.119946080857     1.007825032070
           C          2.409107231550    -0.189953717695     0.122053919143    12.000000000000
           H          3.050107231550    -0.985953717695    -0.249946080857     1.007825032070
           H          2.788107231550     0.755046282305    -0.261946080857     1.007825032070
           H          2.498107231550    -0.165953717695     1.206053919143     1.007825032070
           C          0.963107231550    -0.394953717695    -0.290946080857    12.000000000000
           H          0.619107231550    -1.362953717695     0.072053919143     1.007825032070
           H          0.890107231550    -0.424953717695    -1.379946080857     1.007825032070
           C          0.057107231550     0.703046282305     0.235053919143    12.000000000000
           H          0.066107231550     0.679046282305     1.328053919143     1.007825032070
           H          0.474107231550     1.670046282305    -0.055946080857     1.007825032070
           C         -1.377892768450     0.609046282305    -0.256946080857    12.000000000000
           H         -1.937892768450     1.466046282305     0.117053919143     1.007825032070
           H         -1.385892768450     0.685046282305    -1.345946080857     1.007825032070

  Running in c1 symmetry.

  Rotational constants: A =      0.39324  B =      0.07863  C =      0.07214 [cm^-1]
  Rotational constants: A =  11789.13932  B =   2357.17492  C =   2162.74258 [MHz]
  Nuclear repulsion =  189.045614601649930

  Charge       = 0
  Multiplicity = 1
  Electrons    = 42
  Nalpha       = 21
  Nbeta        = 21

  ==> Algorithm <==

  SCF Algorithm Type is DF.
  DIIS enabled.
  MOM disabled.
  Fractional occupation disabled.
  Guess Type is SAD.
  Energy threshold   = 1.00e-10
  Density threshold  = 1.00e-10
  Integral threshold = 0.00e+00

  ==> Primary Basis <==

  Basis Set: AUG-CC-PVTZ
    Number of shells: 178
    Number of basis function: 506
    Number of Cartesian functions: 575
    Spherical Harmonics?: true
    Max angular momentum: 3

  ==> Pre-Iterations <==

   -------------------------------------------------------
    Irrep   Nso     Nmo     Nalpha   Nbeta   Ndocc  Nsocc
   -------------------------------------------------------
     A        506     506       0       0       0       0
   -------------------------------------------------------
    Total     506     506      21      21      21       0
   -------------------------------------------------------

  ==> Integral Setup <==

  ==> DFJK: Density-Fitted J/K Matrices <==

    J tasked:                  Yes
    K tasked:                  Yes
    wK tasked:                  No
    OpenMP threads:             12
    Integrals threads:          12
    Memory (MB):             42915
    Algorithm:                Core
    Integral Cache:           NONE
    Schwarz Cutoff:          1E-12
    Fitting Condition:       1E-12

   => Auxiliary Basis Set <=

  Basis Set: 
    Number of shells: 318
    Number of basis function: 1072
    Number of Cartesian functions: 1315
    Spherical Harmonics?: true
    Max angular momentum: 4

  Minimum eigenvalue in the overlap matrix is 4.8894267574E-06.
  Using Symmetric Orthogonalization.
  SCF Guess: Superposition of Atomic Densities via on-the-fly atomic UHF.

  ==> Iterations <==

                           Total Energy        Delta E     RMS |[F,P]|

   @DF-RHF iter   0:  -198.26976122579461   -1.98270e+02   8.41657e-03 
   @DF-RHF iter   1:  -196.23478779409461    2.03497e+00   9.63934e-04 
   @DF-RHF iter   2:  -196.37855863264153   -1.43771e-01   3.64710e-04 DIIS
   @DF-RHF iter   3:  -196.39888952469315   -2.03309e-02   1.21728e-04 DIIS
   @DF-RHF iter   4:  -196.40212733319331   -3.23781e-03   2.08878e-05 DIIS
   @DF-RHF iter   5:  -196.40224297022851   -1.15637e-04   6.33166e-06 DIIS
   @DF-RHF iter   6:  -196.40225199229181   -9.02206e-06   1.57560e-06 DIIS
   @DF-RHF iter   7:  -196.40225270202600   -7.09734e-07   2.76041e-07 DIIS
   @DF-RHF iter   8:  -196.40225272598937   -2.39634e-08   6.81986e-08 DIIS
   @DF-RHF iter   9:  -196.40225272711027   -1.12090e-09   1.99291e-08 DIIS
   @DF-RHF iter  10:  -196.40225272720372   -9.34506e-11   5.58699e-09 DIIS
   @DF-RHF iter  11:  -196.40225272721196   -8.24230e-12   1.21295e-09 DIIS
   @DF-RHF iter  12:  -196.40225272721270   -7.38964e-13   3.20989e-10 DIIS
   @DF-RHF iter  13:  -196.40225272721253    1.70530e-13   9.49667e-11 DIIS

  ==> Post-Iterations <==

    Orbital Energies (a.u.)
    -----------------------

    Doubly Occupied:                                                      

       1A    -11.211226     2A    -11.210385     3A    -11.208838  
       4A    -11.205641     5A    -11.205312     6A     -1.084641  
       7A     -1.014333     8A     -0.919672     9A     -0.833531  
      10A     -0.771707    11A     -0.639878    12A     -0.611347  
      13A     -0.594998    14A     -0.568218    15A     -0.535440  
      16A     -0.518606    17A     -0.501957    18A     -0.482111  
      19A     -0.457605    20A     -0.455371    21A     -0.445805  

    Virtual:                                                              

      22A      0.031769    23A      0.035319    24A      0.037399  
      25A      0.039338    26A      0.053725    27A      0.055323  
      28A      0.056971    29A      0.058893    30A      0.063648  
      31A      0.078731    32A      0.082336    33A      0.085210  
      34A      0.113730    35A      0.116419    36A      0.121540  
      37A      0.125018    38A      0.126474    39A      0.138850  
      40A      0.141467    41A      0.143282    42A      0.149103  
      43A      0.150200    44A      0.157712    45A      0.160424  
      46A      0.162334    47A      0.165001    48A      0.170411  
      49A      0.177028    50A      0.204211    51A      0.212870  
      52A      0.223868    53A      0.226439    54A      0.234911  
      55A      0.246872    56A      0.260990    57A      0.271677  
      58A      0.283747    59A      0.285957    60A      0.289242  
      61A      0.301272    62A      0.305281    63A      0.311642  
      64A      0.315653    65A      0.328784    66A      0.332124  
      67A      0.336269    68A      0.345852    69A      0.350382  
      70A      0.353180    71A      0.354225    72A      0.361002  
      73A      0.366802    74A      0.369672    75A      0.372968  
      76A      0.375058    77A      0.380516    78A      0.384426  
      79A      0.392864    80A      0.394697    81A      0.399715  
      82A      0.421142    83A      0.425425    84A      0.426653  
      85A      0.433417    86A      0.440861    87A      0.443887  
      88A      0.447509    89A      0.453852    90A      0.454857  
      91A      0.462842    92A      0.466691    93A      0.474555  
      94A      0.479081    95A      0.482963    96A      0.490133  
      97A      0.493723    98A      0.494639    99A      0.501917  
     100A      0.509164   101A      0.510613   102A      0.518456  
     103A      0.521589   104A      0.531958   105A      0.534699  
     106A      0.539737   107A      0.547974   108A      0.553127  
     109A      0.558358   110A      0.569644   111A      0.574114  
     112A      0.581183   113A      0.593070   114A      0.600246  
     115A      0.603379   116A      0.619553   117A      0.626383  
     118A      0.632454   119A      0.643375   120A      0.644924  
     121A      0.651150   122A      0.660100   123A      0.668950  
     124A      0.681942   125A      0.688548   126A      0.700949  
     127A      0.707037   128A      0.722102   129A      0.731259  
     130A      0.750236   131A      0.775878   132A      0.800490  
     133A      0.810791   134A      0.823003   135A      0.827639  
     136A      0.830702   137A      0.834223   138A      0.841647  
     139A      0.852335   140A      0.861009   141A      0.872250  
     142A      0.876542   143A      0.878689   144A      0.889080  
     145A      0.899047   146A      0.901390   147A      0.908326  
     148A      0.911092   149A      0.916808   150A      0.921291  
     151A      0.929323   152A      0.930416   153A      0.937663  
     154A      0.940311   155A      0.951922   156A      0.971761  
     157A      0.975563   158A      0.979546   159A      0.984418  
     160A      0.995685   161A      1.000455   162A      1.002185  
     163A      1.008357   164A      1.018727   165A      1.035026  
     166A      1.051043   167A      1.052468   168A      1.062458  
     169A      1.075551   170A      1.084700   171A      1.091937  
     172A      1.098263   173A      1.100515   174A      1.110325  
     175A      1.111987   176A      1.118660   177A      1.125909  
     178A      1.142445   179A      1.147072   180A      1.156225  
     181A      1.164690   182A      1.174386   183A      1.181089  
     184A      1.186563   185A      1.199935   186A      1.207816  
     187A      1.212915   188A      1.220461   189A      1.225537  
     190A      1.240399   191A      1.245163   192A      1.247086  
     193A      1.257316   194A      1.260246   195A      1.269125  
     196A      1.282598   197A      1.290798   198A      1.300445  
     199A      1.306645   200A      1.317663   201A      1.326912  
     202A      1.329933   203A      1.343541   204A      1.359702  
     205A      1.367550   206A      1.380618   207A      1.395878  
     208A      1.408372   209A      1.422059   210A      1.426508  
     211A      1.442446   212A      1.459253   213A      1.467718  
     214A      1.475010   215A      1.483880   216A      1.497839  
     217A      1.515101   218A      1.527829   219A      1.531250  
     220A      1.556571   221A      1.560464   222A      1.579420  
     223A      1.582984   224A      1.585531   225A      1.598037  
     226A      1.612619   227A      1.618801   228A      1.630610  
     229A      1.651353   230A      1.655281   231A      1.659316  
     232A      1.665869   233A      1.674854   234A      1.684180  
     235A      1.693146   236A      1.700098   237A      1.707365  
     238A      1.721498   239A      1.730582   240A      1.744201  
     241A      1.747071   242A      1.761900   243A      1.763375  
     244A      1.774001   245A      1.778075   246A      1.788728  
     247A      1.798663   248A      1.801908   249A      1.811341  
     250A      1.819644   251A      1.826469   252A      1.843595  
     253A      1.854455   254A      1.863372   255A      1.880373  
     256A      1.885884   257A      1.895626   258A      1.904861  
     259A      1.927789   260A      1.930676   261A      1.942683  
     262A      1.946494   263A      1.960994   264A      1.979273  
     265A      1.989858   266A      1.999287   267A      2.003624  
     268A      2.011809   269A      2.022510   270A      2.042172  
     271A      2.049513   272A      2.056358   273A      2.064472  
     274A      2.069885   275A      2.092006   276A      2.108771  
     277A      2.114425   278A      2.128140   279A      2.148327  
     280A      2.158918   281A      2.184815   282A      2.206241  
     283A      2.219773   284A      2.238783   285A      2.243876  
     286A      2.246983   287A      2.272353   288A      2.282905  
     289A      2.299125   290A      2.305119   291A      2.314335  
     292A      2.318777   293A      2.338693   294A      2.347489  
     295A      2.356123   296A      2.379118   297A      2.401304  
     298A      2.420134   299A      2.432542   300A      2.443818  
     301A      2.452712   302A      2.483409   303A      2.501357  
     304A      2.510153   305A      2.544154   306A      2.557109  
     307A      2.564030   308A      2.594831   309A      2.636877  
     310A      2.647802   311A      2.700122   312A      2.702311  
     313A      2.737446   314A      2.762550   315A      2.918893  
     316A      2.945574   317A      3.034895   318A      3.130122  
     319A      3.269952   320A      3.279430   321A      3.320592  
     322A      3.364302   323A      3.423110   324A      3.436645  
     325A      3.451525   326A      3.470237   327A      3.481825  
     328A      3.495634   329A      3.511966   330A      3.515548  
     331A      3.548299   332A      3.577324   333A      3.591231  
     334A      3.601582   335A      3.619976   336A      3.639891  
     337A      3.646922   338A      3.667208   339A      3.685622  
     340A      3.687919   341A      3.703710   342A      3.714038  
     343A      3.728053   344A      3.740037   345A      3.751654  
     346A      3.765597   347A      3.772116   348A      3.776159  
     349A      3.803740   350A      3.809686   351A      3.824974  
     352A      3.841605   353A      3.846205   354A      3.865035  
     355A      3.881498   356A      3.888662   357A      3.897056  
     358A      3.903001   359A      3.923477   360A      3.940692  
     361A      3.955538   362A      3.963204   363A      3.982480  
     364A      3.991760   365A      4.004010   366A      4.009944  
     367A      4.016209   368A      4.022953   369A      4.033831  
     370A      4.050797   371A      4.058756   372A      4.062629  
     373A      4.083071   374A      4.099753   375A      4.103896  
     376A      4.112631   377A      4.123558   378A      4.154480  
     379A      4.175583   380A      4.195436   381A      4.211603  
     382A      4.219025   383A      4.240690   384A      4.253705  
     385A      4.261942   386A      4.290332   387A      4.300268  
     388A      4.304579   389A      4.319803   390A      4.329016  
     391A      4.349106   392A      4.359433   393A      4.373474  
     394A      4.398528   395A      4.430541   396A      4.445111  
     397A      4.455329   398A      4.465263   399A      4.496012  
     400A      4.547252   401A      4.575082   402A      4.593000  
     403A      4.628644   404A      4.640176   405A      4.675418  
     406A      4.680828   407A      4.687404   408A      4.702868  
     409A      4.723567   410A      4.737791   411A      4.758214  
     412A      4.766517   413A      4.771920   414A      4.791228  
     415A      4.803763   416A      4.828177   417A      4.841996  
     418A      4.847378   419A      4.862552   420A      4.875557  
     421A      4.888354   422A      4.899946   423A      4.921946  
     424A      4.935393   425A      4.950135   426A      4.978616  
     427A      5.012345   428A      5.020604   429A      5.035081  
     430A      5.060541   431A      5.080095   432A      5.100866  
     433A      5.118885   434A      5.137553   435A      5.161499  
     436A      5.173285   437A      5.176627   438A      5.204016  
     439A      5.219216   440A      5.247040   441A      5.265057  
     442A      5.279568   443A      5.297718   444A      5.311293  
     445A      5.319691   446A      5.344217   447A      5.356771  
     448A      5.373970   449A      5.406133   450A      5.427018  
     451A      5.430978   452A      5.450897   453A      5.454750  
     454A      5.468547   455A      5.501759   456A      5.509324  
     457A      5.543452   458A      5.573833   459A      5.592387  
     460A      5.603842   461A      5.631406   462A      5.634375  
     463A      5.650719   464A      5.683294   465A      5.699821  
     466A      5.717589   467A      5.735217   468A      5.751859  
     469A      5.758877   470A      5.801420   471A      5.824497  
     472A      5.859700   473A      5.884408   474A      5.925418  
     475A      5.937870   476A      5.955749   477A      6.026612  
     478A      6.043688   479A      6.075600   480A      6.114111  
     481A      6.149809   482A      6.198012   483A      6.222943  
     484A      6.229558   485A      6.261722   486A      6.287225  
     487A      6.307862   488A      6.315685   489A      6.348323  
     490A      6.381230   491A      6.400350   492A      6.534933  
     493A      6.614283   494A      6.640012   495A      6.775569  
     496A      6.793594   497A      6.848902   498A      6.876091  
     499A      6.899142   500A      6.976456   501A      7.049515  
     502A     17.914063   503A     18.205685   504A     18.238316  
     505A     18.575505   506A     19.290048  

    Final Occupation by Irrep:
              A 
    DOCC [    21 ]

  Energy converged.

  @DF-RHF Final Energy:  -196.40225272721253

   => Energetics <=

    Nuclear Repulsion Energy =            189.0456146016499304
    One-Electron Energy =                -637.9424892294492793
    Two-Electron Energy =                 252.4946219005868215
    DFT Exchange-Correlation Energy =       0.0000000000000000
    Empirical Dispersion Energy =           0.0000000000000000
    PCM Polarization Energy =               0.0000000000000000
    EFP Energy =                            0.0000000000000000
    Total Energy =                       -196.4022527272124989


  Saving occupied orbitals to File 180.

*** tstop() called on wr37 at Wed Sep 21 11:03:18 2016
Module time:
	user time   =     245.43 seconds =       4.09 minutes
	system time =       4.60 seconds =       0.08 minutes
	total time  =         24 seconds =       0.40 minutes
Total time:
	user time   =     245.43 seconds =       4.09 minutes
	system time =       4.60 seconds =       0.08 minutes
	total time  =         24 seconds =       0.40 minutes


Properties will be evaluated at   0.000000,   0.000000,   0.000000 Bohr

Properties computed using the SCF density matrix

  Nuclear Dipole Moment: (a.u.)
     X:     0.2731      Y:    -0.6388      Z:     0.2537

  Electronic Dipole Moment: (a.u.)
     X:    -0.2901      Y:     0.6467      Z:    -0.2700

  Dipole Moment: (a.u.)
     X:    -0.0170      Y:     0.0079      Z:    -0.0162     Total:     0.0248

  Dipole Moment: (Debye)
     X:    -0.0432      Y:     0.0201      Z:    -0.0413     Total:     0.0630


  //>>>>>>>>>>>>>>>>>>>>>>>>>>>>>>>>>>>//
  //               DFMP2               //
  //<<<<<<<<<<<<<<<<<<<<<<<<<<<<<<<<<<<//


*** tstart() called on wr37
*** at Wed Sep 21 11:03:18 2016


*** tstop() called on wr37 at Wed Sep 21 11:03:18 2016
Module time:
	user time   =       2.71 seconds =       0.05 minutes
	system time =       0.17 seconds =       0.00 minutes
	total time  =          0 seconds =       0.00 minutes
Total time:
	user time   =     248.28 seconds =       4.14 minutes
	system time =       4.77 seconds =       0.08 minutes
	total time  =         24 seconds =       0.40 minutes
	 --------------------------------------------------------
	                          DF-MP2                         
	      2nd-Order Density-Fitted Moller-Plesset Theory     
	              RMP2 Wavefunction,  12 Threads             
	                                                         
	        Rob Parrish, Justin Turney, Andy Simmonett,      
	           Ed Hohenstein, and C. David Sherrill          
	 --------------------------------------------------------

   => Auxiliary Basis Set <=

  Basis Set: 
    Number of shells: 308
    Number of basis function: 1082
    Number of Cartesian functions: 1340
    Spherical Harmonics?: true
    Max angular momentum: 4

	 --------------------------------------------------------
	                 NBF =   506, NAUX =  1082
	 --------------------------------------------------------
	   CLASS    FOCC     OCC    AOCC    AVIR     VIR    FVIR
	   PAIRS       5      21      16     485     485       0
	 --------------------------------------------------------

DGAS Warning! /src/lib/libfock/apps.cc:80 is not currently checking restricted

         ------------------------------------------------------------
                                     CPHF                           
                                  Rob Parrish                       
         ------------------------------------------------------------

  ==> Geometry <==

    Molecular point group: c1
    Full point group: C1

    Geometry (in Angstrom), charge = 0, multiplicity = 1:

       Center              X                  Y                   Z               Mass       
    ------------   -----------------  -----------------  -----------------  -----------------
           C         -2.075892768450    -0.669953717695     0.168053919143    12.000000000000
           H         -2.027892768450    -0.792953717695     1.249053919143     1.007825032070
           H         -1.617892768450    -1.543953717695    -0.287946080857     1.007825032070
           H         -3.124892768450    -0.659953717695    -0.119946080857     1.007825032070
           C          2.409107231550    -0.189953717695     0.122053919143    12.000000000000
           H          3.050107231550    -0.985953717695    -0.249946080857     1.007825032070
           H          2.788107231550     0.755046282305    -0.261946080857     1.007825032070
           H          2.498107231550    -0.165953717695     1.206053919143     1.007825032070
           C          0.963107231550    -0.394953717695    -0.290946080857    12.000000000000
           H          0.619107231550    -1.362953717695     0.072053919143     1.007825032070
           H          0.890107231550    -0.424953717695    -1.379946080857     1.007825032070
           C          0.057107231550     0.703046282305     0.235053919143    12.000000000000
           H          0.066107231550     0.679046282305     1.328053919143     1.007825032070
           H          0.474107231550     1.670046282305    -0.055946080857     1.007825032070
           C         -1.377892768450     0.609046282305    -0.256946080857    12.000000000000
           H         -1.937892768450     1.466046282305     0.117053919143     1.007825032070
           H         -1.385892768450     0.685046282305    -1.345946080857     1.007825032070

  Nuclear repulsion =  189.045614601649930
  Reference energy  = -196.402252727212527

  ==> Basis Set <==

  Basis Set: AUG-CC-PVTZ
    Number of shells: 178
    Number of basis function: 506
    Number of Cartesian functions: 575
    Spherical Harmonics?: true
    Max angular momentum: 3

  ==> CGRSolver (by Rob Parrish) <==

   Number of roots    =         1
   Preconditioning    =    JACOBI
   Convergence cutoff =     1E-06
   Maximum iterations =       100

  ==> CPHFRHamiltonian (by Rob Parrish) <== 

  ==> DFJK: Density-Fitted J/K Matrices <==

    J tasked:                  Yes
    K tasked:                  Yes
    wK tasked:                  No
    OpenMP threads:             12
    Integrals threads:          12
    Memory (MB):             42915
    Algorithm:                Core
    Integral Cache:           NONE
    Schwarz Cutoff:          1E-12
    Fitting Condition:       1E-12

   => Auxiliary Basis Set <=

  Basis Set: 
    Number of shells: 318
    Number of basis function: 1072
    Number of Cartesian functions: 1315
    Spherical Harmonics?: true
    Max angular momentum: 4

  ==> CPHF Iterations <==

  => Iterations <=

             Iter  Converged  Remaining    Residual
  CGR           1          0          1   9.196E-02
  CGR           2          0          1   1.309E-02
  CGR           3          0          1   3.724E-03
  CGR           4          0          1   8.418E-04
  CGR           5          0          1   1.771E-04
  CGR           6          0          1   3.997E-05
  CGR           7          0          1   1.075E-05
  CGR           8          0          1   2.475E-06
  CGR           9          1          0   6.276E-07

    CGRSolver converged.

  ==> DFCorrGrad: Density-Fitted Correlated Gradients <==

    OpenMP threads:             12
    Integrals threads:          12
    Memory (MB):             42915
    Schwarz Cutoff:          0E+00
    Fitting Condition:       1E-12

   => Auxiliary Basis Set <=

  Basis Set: 
    Number of shells: 318
    Number of basis function: 1072
    Number of Cartesian functions: 1315
    Spherical Harmonics?: true
    Max angular momentum: 4

	-----------------------------------------------------------
	 ==================> DF-MP2 Energies <==================== 
	-----------------------------------------------------------
	 Reference Energy          =    -196.4022527272125274 [Eh]
	 Singles Energy            =      -0.0000000000000002 [Eh]
	 Same-Spin Energy          =      -0.1953306941747948 [Eh]
	 Opposite-Spin Energy      =      -0.7114871270084910 [Eh]
	 Correlation Energy        =      -0.9068178211832861 [Eh]
	 Total Energy              =    -197.3090705483958232 [Eh]
	-----------------------------------------------------------
	 ================> DF-SCS-MP2 Energies <================== 
	-----------------------------------------------------------
	 SCS Same-Spin Scale       =       0.3333333333333333 [-]
	 SCS Opposite-Spin Scale   =       1.2000000000000000 [-]
	 SCS Same-Spin Energy      =      -0.0651102313915983 [Eh]
	 SCS Opposite-Spin Energy  =      -0.8537845524101892 [Eh]
	 SCS Correlation Energy    =      -0.9188947838017878 [Eh]
	 SCS Total Energy          =    -197.3211475110143169 [Eh]
	-----------------------------------------------------------


  -Total Gradient:
     Atom            X                  Y                   Z
    ------   -----------------  -----------------  -----------------
       1        0.001466137657     0.001683456203    -0.000336972981
       2       -0.000006959457     0.000334911582    -0.001632795126
       3       -0.000425097908     0.001403937917     0.000404884379
       4        0.001221175754     0.000166755594     0.000336311267
       5       -0.001317605715    -0.000110444463     0.000051661636
       6       -0.000997990871     0.000911319872     0.000358147963
       7       -0.000893005150    -0.001402662079     0.000505045627
       8       -0.000437531505     0.000000497801    -0.001936571342
       9        0.000380450948     0.001840955972     0.001152356889
      10        0.000496048679     0.001384411167    -0.000080487814
      11        0.000056545800     0.000298524506     0.001483007020
      12       -0.000888370624    -0.002119533766    -0.001464954072
      13       -0.000047503917    -0.000165136282    -0.001326343774
      14       -0.000398367905    -0.000952231141     0.000110355451
      15        0.000747005933    -0.001747729151     0.001411716145
      16        0.000859013539    -0.001269828165    -0.000350297500
      17        0.000186054743    -0.000257205566     0.001314936231


			-----------------------------------------
			 OPTKING 2.0: for geometry optimizations 
			  - R.A. King,  Bethel University        
			-----------------------------------------

	Internal coordinates to be generated automatically.
	Detected frag 1 with atoms:  1 2 3 4 5 6 7 8 9 10 11 12 13 14 15 16 17
	---Fragment 1 Bond Connectivity---
	 1 : 2 3 4 15
	 2 : 1
	 3 : 1
	 4 : 1
	 5 : 6 7 8 9
	 6 : 5
	 7 : 5
	 8 : 5
	 9 : 5 10 11 12
	 10 : 9
	 11 : 9
	 12 : 9 13 14 15
	 13 : 12
	 14 : 12
	 15 : 1 12 16 17
	 16 : 15
	 17 : 15

	---Fragment 1 Geometry and Gradient---
	 C          -3.9228688136       -1.2660290482        0.3175758827
	 H          -3.8321619592       -1.4984653625        2.3603698324
	 H          -3.0573742447       -2.9176496883       -0.5441392339
	 H          -5.9051915270       -1.2471317868       -0.2266652435
	 C           4.5525528924       -0.3589605044        0.2306484806
	 H           5.7638673436       -1.8631825061       -0.4723296408
	 H           5.2687590967        1.4268306912       -0.4950063544
	 H           4.7207385182       -0.3136070772        2.2791116087
	 C           1.8200089042       -0.7463543616       -0.5498084123
	 H           1.1699431145       -2.5756092582        0.1361621740
	 H           1.6820588965       -0.8030461456       -2.6077201710
	 C           0.1079170278        1.3285649323        0.4441875336
	 H           0.1249245630        1.2832115051        2.5096581969
	 H           0.8959328253        3.1559301028       -0.1057227710
	 C          -2.6038399729        1.1509306758       -0.4855577237
	 H          -3.6620866073        2.7704259717        0.2211998500
	 H          -2.6189577819        1.2945498619       -2.5434694825
	             0.0014661377        0.0016834562       -0.0003369730
	            -0.0000069595        0.0003349116       -0.0016327951
	            -0.0004250979        0.0014039379        0.0004048844
	             0.0012211758        0.0001667556        0.0003363113
	            -0.0013176057       -0.0001104445        0.0000516616
	            -0.0009979909        0.0009113199        0.0003581480
	            -0.0008930052       -0.0014026621        0.0005050456
	            -0.0004375315        0.0000004978       -0.0019365713
	             0.0003804509        0.0018409560        0.0011523569
	             0.0004960487        0.0013844112       -0.0000804878
	             0.0000565458        0.0002985245        0.0014830070
	            -0.0008883706       -0.0021195338       -0.0014649541
	            -0.0000475039       -0.0001651363       -0.0013263438
	            -0.0003983679       -0.0009522311        0.0001103555
	             0.0007470059       -0.0017477292        0.0014117161
	             0.0008590135       -0.0012698282       -0.0003502975
	             0.0001860547       -0.0002572056        0.0013149362

	Previous optimization step data not found.  Starting new optimization.

	---Fragment 1 Intrafragment Coordinates---
	 - Coordinate -           - BOHR/RAD -       - ANG/DEG -
	 R(1,2)           =         2.057975	       1.089034
	 R(1,3)           =         2.054138	       1.087003
	 R(1,4)           =         2.055762	       1.087863
	 R(1,15)          =         2.868197	       1.517785
	 R(5,6)           =         2.055272	       1.087603
	 R(5,7)           =         2.056350	       1.088174
	 R(5,8)           =         2.055856	       1.087912
	 R(5,9)           =         2.868098	       1.517732
	 R(9,10)          =         2.058960	       1.089554
	 R(9,11)          =         2.063309	       1.091856
	 R(9,12)          =         2.867852	       1.517602
	 R(12,13)         =         2.066039	       1.093301
	 R(12,14)         =         2.064615	       1.092547
	 R(12,15)         =         2.872213	       1.519910
	 R(15,16)         =         2.059650	       1.089920
	 R(15,17)         =         2.062973	       1.091678
	 B(1,15,12)       =         1.977587	     113.307409
	 B(1,15,16)       =         1.907334	     109.282208
	 B(1,15,17)       =         1.912000	     109.549519
	 B(2,1,3)         =         1.882861	     107.879986
	 B(2,1,4)         =         1.882127	     107.837948
	 B(2,1,15)        =         1.931415	     110.661948
	 B(3,1,4)         =         1.878239	     107.615176
	 B(3,1,15)        =         1.945843	     111.488610
	 B(4,1,15)        =         1.940753	     111.196979
	 B(5,9,10)        =         1.907254	     109.277584
	 B(5,9,11)        =         1.916453	     109.804673
	 B(5,9,12)        =         1.957070	     112.131839
	 B(6,5,7)         =         1.885587	     108.036195
	 B(6,5,8)         =         1.884661	     107.983140
	 B(6,5,9)         =         1.949358	     111.690013
	 B(7,5,8)         =         1.879648	     107.695899
	 B(7,5,9)         =         1.931680	     110.677140
	 B(8,5,9)         =         1.930567	     110.613327
	 B(9,12,13)       =         1.902556	     109.008434
	 B(9,12,14)       =         1.896730	     108.674651
	 B(9,12,15)       =         1.989637	     113.997825
	 B(10,9,11)       =         1.861652	     106.664822
	 B(10,9,12)       =         1.916471	     109.805724
	 B(11,9,12)       =         1.902504	     109.005431
	 B(12,15,16)      =         1.902220	     108.989191
	 B(12,15,17)      =         1.902361	     108.997240
	 B(13,12,14)      =         1.857263	     106.413308
	 B(13,12,15)      =         1.907131	     109.270533
	 B(14,12,15)      =         1.905908	     109.200513
	 B(16,15,17)      =         1.858548	     106.486981
	 D(1,15,12,9)     =         1.075192	      61.603938
	 D(1,15,12,13)    =        -1.058138	     -60.626819
	 D(1,15,12,14)    =        -3.083109	    -176.649119
	 D(2,1,15,12)     =         0.956136	      54.782529
	 D(2,1,15,16)     =        -1.168646	     -66.958460
	 D(2,1,15,17)     =         3.084485	     176.727944
	 D(3,1,15,12)     =        -1.139534	     -65.290462
	 D(3,1,15,16)     =         3.018871	     172.968549
	 D(3,1,15,17)     =         0.988815	      56.654953
	 D(4,1,15,12)     =         3.047518	     174.609948
	 D(4,1,15,16)     =         0.922737	      52.868958
	 D(4,1,15,17)     =        -1.107318	     -63.444638
	 D(5,9,12,13)     =        -1.096970	     -62.851743
	 D(5,9,12,14)     =         0.920429	      52.736721
	 D(5,9,12,15)     =         3.050375	     174.773627
	 D(6,5,9,10)      =         1.002276	      57.426186
	 D(6,5,9,11)      =        -1.034007	     -59.244234
	 D(6,5,9,12)      =         3.131388	     179.415308
	 D(7,5,9,10)      =         3.103922	     177.841615
	 D(7,5,9,11)      =         1.067639	      61.171196
	 D(7,5,9,12)      =        -1.050152	     -60.169262
	 D(8,5,9,10)      =        -1.097437	     -62.878497
	 D(8,5,9,11)      =        -3.133720	    -179.548917
	 D(8,5,9,12)      =         1.031675	      59.110625
	 D(9,12,15,16)    =        -3.080353	    -176.491241
	 D(9,12,15,17)    =        -1.058531	     -60.649342
	 D(10,9,12,13)    =         1.026873	      58.835491
	 D(10,9,12,14)    =         3.044272	     174.423955
	 D(10,9,12,15)    =        -1.108967	     -63.539139
	 D(11,9,12,13)    =         3.060428	     175.349617
	 D(11,9,12,14)    =        -1.205358	     -69.061918
	 D(11,9,12,15)    =         0.924588	      52.974987
	 D(13,12,15,16)   =         1.069503	      61.278002
	 D(13,12,15,17)   =         3.091325	     177.119901
	 D(14,12,15,16)   =        -0.955468	     -54.744298
	 D(14,12,15,17)   =         1.066354	      61.097601

	Current energy   :      -197.3090705484

	Generating empirical Hessian (Schlegel '84) for each fragment.
	Taking RFO optimization step.
	Going to follow RFO solution 1.
	Using RFO vector 1.
	Norm of target step-size    0.10401
	Projected energy change by RFO approximation:        -0.0004155136

	Back-transformation to cartesian coordinates...
	Could not converge backtransformation.
	Using first guess instead.

	--- Internal Coordinate Step in ANG or DEG, aJ/ANG or AJ/DEG ---
	 ---------------------------------------------------------------------------
	   Coordinate                Previous        Force       Change         New 
	   ----------                --------       ------       ------       ------
	    1 R(1,2)          =      1.089034     0.013667     0.002768     1.091801
	    2 R(1,3)          =      1.087003     0.012175     0.002553     1.089556
	    3 R(1,4)          =      1.087863     0.010422     0.001949     1.089811
	    4 R(1,15)         =      1.517785     0.036296     0.007822     1.525607
	    5 R(5,6)          =      1.087603     0.011350     0.002184     1.089787
	    6 R(5,7)          =      1.088174     0.014066     0.002888     1.091061
	    7 R(5,8)          =      1.087912     0.016192     0.003245     1.091157
	    8 R(5,9)          =      1.517732     0.031579     0.006754     1.524486
	    9 R(9,10)         =      1.089554     0.011645     0.002457     1.092011
	   10 R(9,11)         =      1.091856     0.012285     0.002518     1.094375
	   11 R(9,12)         =      1.517602     0.035143     0.007480     1.525082
	   12 R(12,13)        =      1.093301     0.010898     0.002069     1.095370
	   13 R(12,14)        =      1.092547     0.008439     0.001647     1.094194
	   14 R(12,15)        =      1.519910     0.034703     0.007331     1.527240
	   15 R(15,16)        =      1.089920     0.012853     0.002514     1.092433
	   16 R(15,17)        =      1.091678     0.010966     0.002137     1.093815
	   17 B(1,15,12)      =    113.307409     0.000034     0.154144   113.461553
	   18 B(1,15,16)      =    109.282208    -0.000017    -0.106521   109.175687
	   19 B(1,15,17)      =    109.549519    -0.000003     0.063350   109.612869
	   20 B(2,1,3)        =    107.879986    -0.000022    -0.106584   107.773402
	   21 B(2,1,4)        =    107.837948    -0.000010    -0.056188   107.781760
	   22 B(2,1,15)       =    110.661948     0.000008     0.038541   110.700489
	   23 B(3,1,4)        =    107.615176    -0.000021    -0.083824   107.531352
	   24 B(3,1,15)       =    111.488610     0.000033     0.163837   111.652447
	   25 B(4,1,15)       =    111.196979     0.000009     0.030127   111.227105
	   26 B(5,9,10)       =    109.277584     0.000005     0.058767   109.336351
	   27 B(5,9,11)       =    109.804673    -0.000001    -0.030400   109.774272
	   28 B(5,9,12)       =    112.131839    -0.000009    -0.000564   112.131275
	   29 B(6,5,7)        =    108.036195    -0.000023    -0.111468   107.924727
	   30 B(6,5,8)        =    107.983140    -0.000022    -0.117562   107.865578
	   31 B(6,5,9)        =    111.690013     0.000014     0.036000   111.726012
	   32 B(7,5,8)        =    107.695899    -0.000020    -0.065052   107.630847
	   33 B(7,5,9)        =    110.677140     0.000028     0.150149   110.827289
	   34 B(8,5,9)        =    110.613327     0.000020     0.093293   110.706620
	   35 B(9,12,13)      =    109.008434     0.000002     0.087337   109.095771
	   36 B(9,12,14)      =    108.674651    -0.000015    -0.074488   108.600164
	   37 B(9,12,15)      =    113.997825     0.000031     0.139535   114.137360
	   38 B(10,9,11)      =    106.664822    -0.000014    -0.187434   106.477388
	   39 B(10,9,12)      =    109.805724     0.000009     0.093674   109.899398
	   40 B(11,9,12)      =    109.005431     0.000009     0.056283   109.061714
	   41 B(12,15,16)     =    108.989191    -0.000005    -0.029584   108.959607
	   42 B(12,15,17)     =    108.997240    -0.000007     0.050770   109.048010
	   43 B(13,12,14)     =    106.413308    -0.000003    -0.131146   106.282163
	   44 B(13,12,15)     =    109.270533    -0.000014    -0.019491   109.251041
	   45 B(14,12,15)     =    109.200513    -0.000004    -0.021165   109.179348
	   46 B(16,15,17)     =    106.486981    -0.000004    -0.152177   106.334805
	   47 D(1,15,12,9)    =     61.603938     0.000004     1.765153    63.369091
	   48 D(1,15,12,13)   =    -60.626819     0.000000     1.569280   -59.057539
	   49 D(1,15,12,14)   =   -176.649119     0.000003     1.748892  -174.900227
	   50 D(2,1,15,12)    =     54.782529    -0.000000     0.425590    55.208120
	   51 D(2,1,15,16)    =    -66.958460    -0.000001     0.436244   -66.522216
	   52 D(2,1,15,17)    =    176.727944     0.000003     0.643943   177.371887
	   53 D(3,1,15,12)    =    -65.290462     0.000000     0.425350   -64.865112
	   54 D(3,1,15,16)    =    172.968549    -0.000001     0.436003   173.404552
	   55 D(3,1,15,17)    =     56.654953     0.000003     0.643702    57.298655
	   56 D(4,1,15,12)    =    174.609948    -0.000000     0.400284   175.010231
	   57 D(4,1,15,16)    =     52.868958    -0.000001     0.410937    53.279895
	   58 D(4,1,15,17)    =    -63.444638     0.000002     0.618636   -62.826002
	   59 D(5,9,12,13)    =    -62.851743     0.000001     0.872001   -61.979742
	   60 D(5,9,12,14)    =     52.736721    -0.000001     0.722854    53.459575
	   61 D(5,9,12,15)    =    174.773627     0.000000     0.735152   175.508779
	   62 D(6,5,9,10)     =     57.426186    -0.000002    -0.046779    57.379407
	   63 D(6,5,9,11)     =    -59.244234     0.000001     0.162844   -59.081390
	   64 D(6,5,9,12)     =    179.415308     0.000000     0.112879   179.528187
	   65 D(7,5,9,10)     =    177.841615    -0.000002    -0.061351   177.780265
	   66 D(7,5,9,11)     =     61.171196     0.000001     0.148272    61.319468
	   67 D(7,5,9,12)     =    -60.169262    -0.000000     0.098307   -60.070956
	   68 D(8,5,9,10)     =    -62.878497    -0.000001     0.014583   -62.863914
	   69 D(8,5,9,11)     =   -179.548917     0.000002     0.224206  -179.324711
	   70 D(8,5,9,12)     =     59.110625     0.000001     0.174241    59.284865
	   71 D(9,12,15,16)   =   -176.491241     0.000003     1.711171  -174.780070
	   72 D(9,12,15,17)   =    -60.649342     0.000001     1.541471   -59.107870
	   73 D(10,9,12,13)   =     58.835491     0.000003     1.012225    59.847716
	   74 D(10,9,12,14)   =    174.423955     0.000001     0.863078   175.287034
	   75 D(10,9,12,15)   =    -63.539139     0.000002     0.875377   -62.663762
	   76 D(11,9,12,13)   =    175.349617     0.000001     0.871836   176.221453
	   77 D(11,9,12,14)   =    -69.061918    -0.000001     0.722689   -68.339230
	   78 D(11,9,12,15)   =     52.974987     0.000000     0.734987    53.709974
	   79 D(13,12,15,16)  =     61.278002    -0.000000     1.515297    62.793300
	   80 D(13,12,15,17)  =    177.119901    -0.000003     1.345598   178.465499
	   81 D(14,12,15,16)  =    -54.744298     0.000003     1.694910   -53.049388
	   82 D(14,12,15,17)  =     61.097601     0.000000     1.525210    62.622812
	 ---------------------------------------------------------------------------

  ==> Convergence Check <==

  Measures of convergence in internal coordinates in au.
  Criteria marked as inactive (o), active & met (*), and active & unmet ( ).
  --------------------------------------------------------------------------------------------- ~
   Step     Total Energy     Delta E     MAX Force     RMS Force      MAX Disp      RMS Disp    ~
  --------------------------------------------------------------------------------------------- ~
    Convergence Criteria             o    2.00e-06 *    1.00e-06 *    6.00e-06 *    4.00e-06 *  ~
  --------------------------------------------------------------------------------------------- ~
      1    -197.30907055   -1.97e+02 o    4.41e-03      1.09e-03      3.08e-02      1.15e-02    ~
  ---------------------------------------------------------------------------------------------

	Writing optimization data to binary file.
	Structure for next step:
	Cartesian Geometry (in Angstrom)
	    C    -2.0961343096  -0.6688418154   0.1833188969
	    H    -2.0587964115  -0.7712312887   1.2696671715
	    H    -1.6395788827  -1.5579692838  -0.2504341835
	    H    -3.1444859292  -0.6596941067  -0.1142774374
	    C     2.4237226821  -0.1893774800   0.1257800599
	    H     3.0727077629  -0.9769716458  -0.2565153942
	    H     2.8072513348   0.7663001769  -0.2347760166
	    H     2.5039172470  -0.1883162785   1.2139855320
	    C     0.9761613538  -0.3908637187  -0.3078405647
	    H     0.6300095403  -1.3694817755   0.0312381596
	    H     0.9150094999  -0.4014381873  -1.4004542127
	    C     0.0575267178   0.7003192334   0.2318872442
	    H     0.0663979583   0.6670981695   1.3267171216
	    H     0.4699464183   1.6741601730  -0.0488327518
	    C    -1.3840749376   0.6043934266  -0.2631337229
	    H    -1.9414394782   1.4722630735   0.0968071627
	    H    -1.3913176301   0.6654381269  -1.3552204394
			--------------------------
			 OPTKING Finished Execution 
			--------------------------

    Structure for next step:
    Molecular point group: c1
    Full point group: C1

    Geometry (in Angstrom), charge = 0, multiplicity = 1:

    C           -2.096388225714    -0.668597593773     0.184425477539
    H           -2.059050327605    -0.770987067123     1.270773752143
    H           -1.639832798807    -1.557725062199    -0.249327602924
    H           -3.144739845384    -0.659449885087    -0.113170856760
    C            2.423468765987    -0.189133258355     0.126886640539
    H            3.072453846769    -0.976727424232    -0.255408813559
    H            2.806997418605     0.766544398485    -0.233669435957
    H            2.503663330807    -0.188072056924     1.215092112589
    C            0.975907437640    -0.390619497092    -0.306733984053
    H            0.629755624141    -1.369237553890     0.032344740206
    H            0.914755583762    -0.401193965686    -1.399347632039
    C            0.057272801693     0.700563454958     0.232993824833
    H            0.066144042140     0.667342391066     1.327823702206
    H            0.469692502114     1.674404394562    -0.047726171151
    C           -1.384328853778     0.604637648179    -0.262027142267
    H           -1.941693394370     1.472507295092     0.097913743284
    H           -1.391571546262     0.665682348519    -1.354113858759

gradient() will perform analytic gradient computation.
    SCF Algorithm Type (re)set to DF.

*** tstart() called on wr37
*** at Wed Sep 21 11:04:47 2016


         ---------------------------------------------------------
                                   SCF
            by Justin Turney, Rob Parrish, and Andy Simmonett
                              RHF Reference
                       12 Threads,  60000 MiB Core
         ---------------------------------------------------------

  ==> Geometry <==

    Molecular point group: c1
    Full point group: C1

    Geometry (in Angstrom), charge = 0, multiplicity = 1:

       Center              X                  Y                   Z               Mass       
    ------------   -----------------  -----------------  -----------------  -----------------
           C         -2.096388225714    -0.668597593773     0.184425477539    12.000000000000
           H         -2.059050327605    -0.770987067123     1.270773752143     1.007825032070
           H         -1.639832798807    -1.557725062199    -0.249327602924     1.007825032070
           H         -3.144739845384    -0.659449885087    -0.113170856760     1.007825032070
           C          2.423468765987    -0.189133258355     0.126886640539    12.000000000000
           H          3.072453846769    -0.976727424232    -0.255408813559     1.007825032070
           H          2.806997418605     0.766544398485    -0.233669435957     1.007825032070
           H          2.503663330807    -0.188072056924     1.215092112589     1.007825032070
           C          0.975907437640    -0.390619497092    -0.306733984053    12.000000000000
           H          0.629755624141    -1.369237553890     0.032344740206     1.007825032070
           H          0.914755583762    -0.401193965686    -1.399347632039     1.007825032070
           C          0.057272801693     0.700563454958     0.232993824833    12.000000000000
           H          0.066144042140     0.667342391066     1.327823702206     1.007825032070
           H          0.469692502114     1.674404394562    -0.047726171151     1.007825032070
           C         -1.384328853778     0.604637648179    -0.262027142267    12.000000000000
           H         -1.941693394370     1.472507295092     0.097913743284     1.007825032070
           H         -1.391571546262     0.665682348519    -1.354113858759     1.007825032070

  Running in c1 symmetry.

  Rotational constants: A =      0.39172  B =      0.07741  C =      0.07126 [cm^-1]
  Rotational constants: A =  11743.56611  B =   2320.69550  C =   2136.34005 [MHz]
  Nuclear repulsion =  188.133402345609483

  Charge       = 0
  Multiplicity = 1
  Electrons    = 42
  Nalpha       = 21
  Nbeta        = 21

  ==> Algorithm <==

  SCF Algorithm Type is DF.
  DIIS enabled.
  MOM disabled.
  Fractional occupation disabled.
  Guess Type is READ.
  Energy threshold   = 1.00e-10
  Density threshold  = 1.00e-10
  Integral threshold = 0.00e+00

  ==> Primary Basis <==

  Basis Set: AUG-CC-PVTZ
    Number of shells: 178
    Number of basis function: 506
    Number of Cartesian functions: 575
    Spherical Harmonics?: true
    Max angular momentum: 3

  ==> Pre-Iterations <==

   -------------------------------------------------------
    Irrep   Nso     Nmo     Nalpha   Nbeta   Ndocc  Nsocc
   -------------------------------------------------------
     A        506     506       0       0       0       0
   -------------------------------------------------------
    Total     506     506      21      21      21       0
   -------------------------------------------------------

  ==> Integral Setup <==

  ==> DFJK: Density-Fitted J/K Matrices <==

    J tasked:                  Yes
    K tasked:                  Yes
    wK tasked:                  No
    OpenMP threads:             12
    Integrals threads:          12
    Memory (MB):             42915
    Algorithm:                Core
    Integral Cache:           NONE
    Schwarz Cutoff:          1E-12
    Fitting Condition:       1E-12

   => Auxiliary Basis Set <=

  Basis Set: 
    Number of shells: 318
    Number of basis function: 1072
    Number of Cartesian functions: 1315
    Spherical Harmonics?: true
    Max angular momentum: 4

  Minimum eigenvalue in the overlap matrix is 5.0502085605E-06.
  Using Symmetric Orthogonalization.
  SCF Guess: Reading in previously saved MOs, projecting if necessary.

  Using orbitals from previous SCF, no projection.
  Recomputing DOCC and SOCC from number of alpha and beta electrons from previous calculation.
              A 
    DOCC [    21 ]

  ==> Iterations <==

                           Total Energy        Delta E     RMS |[F,P]|

   @DF-RHF iter   0:  -196.36754517361990   -1.96368e+02   9.97991e-05 
   @DF-RHF iter   1:  -196.40224129699672   -3.46961e-02   2.61103e-05 
   @DF-RHF iter   2:  -196.40237146596573   -1.30169e-04   1.23573e-05 DIIS
   @DF-RHF iter   3:  -196.40239529565670   -2.38297e-05   3.64042e-06 DIIS
   @DF-RHF iter   4:  -196.40239972198790   -4.42633e-06   5.02086e-07 DIIS
   @DF-RHF iter   5:  -196.40239979401147   -7.20236e-08   1.67334e-07 DIIS
   @DF-RHF iter   6:  -196.40239980000516   -5.99368e-09   3.24585e-08 DIIS
   @DF-RHF iter   7:  -196.40239980032121   -3.16049e-10   6.21600e-09 DIIS
   @DF-RHF iter   8:  -196.40239980033155   -1.03455e-11   1.95586e-09 DIIS
   @DF-RHF iter   9:  -196.40239980033235   -7.95808e-13   4.67972e-10 DIIS
   @DF-RHF iter  10:  -196.40239980033201    3.41061e-13   1.06772e-10 DIIS
   @DF-RHF iter  11:  -196.40239980033212   -1.13687e-13   2.78642e-11 DIIS

  ==> Post-Iterations <==

    Orbital Energies (a.u.)
    -----------------------

    Doubly Occupied:                                                      

       1A    -11.213445     2A    -11.212590     3A    -11.210934  
       4A    -11.207455     5A    -11.207105     6A     -1.080886  
       7A     -1.011895     8A     -0.918450     9A     -0.832559  
      10A     -0.771836    11A     -0.637159    12A     -0.609501  
      13A     -0.593005    14A     -0.566557    15A     -0.534755  
      16A     -0.518048    17A     -0.501020    18A     -0.481857  
      19A     -0.457958    20A     -0.454867    21A     -0.445418  

    Virtual:                                                              

      22A      0.031778    23A      0.035355    24A      0.037495  
      25A      0.039386    26A      0.053637    27A      0.055263  
      28A      0.056874    29A      0.058830    30A      0.064293  
      31A      0.078647    32A      0.082066    33A      0.085161  
      34A      0.112761    35A      0.116495    36A      0.121496  
      37A      0.125336    38A      0.126771    39A      0.138995  
      40A      0.141669    41A      0.144119    42A      0.148915  
      43A      0.150085    44A      0.157711    45A      0.160320  
      46A      0.162405    47A      0.164897    48A      0.170403  
      49A      0.177847    50A      0.203824    51A      0.212388  
      52A      0.224250    53A      0.225039    54A      0.234873  
      55A      0.245832    56A      0.260211    57A      0.271393  
      58A      0.282137    59A      0.285892    60A      0.288786  
      61A      0.300296    62A      0.305114    63A      0.310618  
      64A      0.314950    65A      0.328055    66A      0.332106  
      67A      0.335896    68A      0.345763    69A      0.350912  
      70A      0.353392    71A      0.355162    72A      0.360197  
      73A      0.367237    74A      0.369391    75A      0.373144  
      76A      0.374790    77A      0.380026    78A      0.384217  
      79A      0.392958    80A      0.394005    81A      0.399099  
      82A      0.420080    83A      0.425035    84A      0.426523  
      85A      0.431148    86A      0.439235    87A      0.443079  
      88A      0.446515    89A      0.452186    90A      0.453936  
      91A      0.461236    92A      0.465183    93A      0.473964  
      94A      0.478249    95A      0.481640    96A      0.487937  
      97A      0.492477    98A      0.493963    99A      0.501267  
     100A      0.507846   101A      0.509075   102A      0.517704  
     103A      0.520058   104A      0.530396   105A      0.533152  
     106A      0.539295   107A      0.547231   108A      0.551865  
     109A      0.558180   110A      0.567883   111A      0.571748  
     112A      0.580513   113A      0.592837   114A      0.599587  
     115A      0.602027   116A      0.618580   117A      0.625153  
     118A      0.632023   119A      0.642031   120A      0.643106  
     121A      0.650026   122A      0.659018   123A      0.668074  
     124A      0.679675   125A      0.685920   126A      0.700577  
     127A      0.707852   128A      0.720734   129A      0.734906  
     130A      0.748354   131A      0.772474   132A      0.798472  
     133A      0.808762   134A      0.821875   135A      0.828095  
     136A      0.829972   137A      0.834447   138A      0.842355  
     139A      0.852755   140A      0.859379   141A      0.871788  
     142A      0.874528   143A      0.876013   144A      0.888873  
     145A      0.896959   146A      0.900914   147A      0.905516  
     148A      0.908115   149A      0.916447   150A      0.919715  
     151A      0.927646   152A      0.929128   153A      0.935257  
     154A      0.936232   155A      0.948636   156A      0.969887  
     157A      0.974037   158A      0.977708   159A      0.983123  
     160A      0.995189   161A      0.997681   162A      1.000641  
     163A      1.008440   164A      1.016435   165A      1.038565  
     166A      1.046538   167A      1.050534   168A      1.056850  
     169A      1.075025   170A      1.081522   171A      1.090055  
     172A      1.098671   173A      1.099401   174A      1.109713  
     175A      1.110232   176A      1.115456   177A      1.123919  
     178A      1.139479   179A      1.148532   180A      1.155956  
     181A      1.161160   182A      1.172633   183A      1.181013  
     184A      1.185393   185A      1.198959   186A      1.207279  
     187A      1.209969   188A      1.216138   189A      1.224683  
     190A      1.238792   191A      1.241912   192A      1.245350  
     193A      1.254225   194A      1.256374   195A      1.267410  
     196A      1.279364   197A      1.289459   198A      1.298610  
     199A      1.304401   200A      1.314948   201A      1.325639  
     202A      1.327707   203A      1.339199   204A      1.359471  
     205A      1.367925   206A      1.378015   207A      1.391271  
     208A      1.404998   209A      1.419324   210A      1.426896  
     211A      1.437706   212A      1.456103   213A      1.460531  
     214A      1.472903   215A      1.477090   216A      1.497236  
     217A      1.509040   218A      1.522054   219A      1.528906  
     220A      1.553217   221A      1.556068   222A      1.572537  
     223A      1.577657   224A      1.583614   225A      1.596660  
     226A      1.610685   227A      1.616475   228A      1.627403  
     229A      1.649115   230A      1.653876   231A      1.657085  
     232A      1.663685   233A      1.668247   234A      1.682049  
     235A      1.690457   236A      1.699738   237A      1.702317  
     238A      1.718050   239A      1.728216   240A      1.739144  
     241A      1.745289   242A      1.757265   243A      1.759718  
     244A      1.770998   245A      1.775752   246A      1.784750  
     247A      1.796783   248A      1.799990   249A      1.807230  
     250A      1.814482   251A      1.822626   252A      1.838545  
     253A      1.850086   254A      1.860083   255A      1.874665  
     256A      1.881738   257A      1.891543   258A      1.902183  
     259A      1.919441   260A      1.925388   261A      1.937561  
     262A      1.941845   263A      1.958472   264A      1.973922  
     265A      1.987440   266A      1.995986   267A      1.999916  
     268A      2.007412   269A      2.023472   270A      2.037017  
     271A      2.044727   272A      2.049461   273A      2.060184  
     274A      2.070476   275A      2.089009   276A      2.106563  
     277A      2.113269   278A      2.125537   279A      2.146777  
     280A      2.153410   281A      2.179407   282A      2.199119  
     283A      2.214721   284A      2.235819   285A      2.237711  
     286A      2.245564   287A      2.269344   288A      2.279486  
     289A      2.296299   290A      2.300969   291A      2.310085  
     292A      2.314255   293A      2.334231   294A      2.346105  
     295A      2.356563   296A      2.373261   297A      2.398478  
     298A      2.411411   299A      2.429893   300A      2.438452  
     301A      2.447318   302A      2.482909   303A      2.494548  
     304A      2.506294   305A      2.537078   306A      2.552308  
     307A      2.562294   308A      2.597315   309A      2.628867  
     310A      2.643349   311A      2.691733   312A      2.694077  
     313A      2.735846   314A      2.752588   315A      2.909582  
     316A      2.930785   317A      3.022301   318A      3.117074  
     319A      3.260190   320A      3.264467   321A      3.318159  
     322A      3.358096   323A      3.416449   324A      3.430879  
     325A      3.451682   326A      3.467777   327A      3.481852  
     328A      3.494207   329A      3.511129   330A      3.513810  
     331A      3.546811   332A      3.571164   333A      3.585137  
     334A      3.597801   335A      3.613952   336A      3.635697  
     337A      3.645046   338A      3.659955   339A      3.679263  
     340A      3.685249   341A      3.700937   342A      3.709954  
     343A      3.724960   344A      3.738635   345A      3.746517  
     346A      3.762173   347A      3.769835   348A      3.770644  
     349A      3.802128   350A      3.807005   351A      3.819961  
     352A      3.837901   353A      3.848337   354A      3.864022  
     355A      3.876746   356A      3.886215   357A      3.893449  
     358A      3.900065   359A      3.918006   360A      3.935962  
     361A      3.948451   362A      3.955516   363A      3.973776  
     364A      3.987971   365A      3.999495   366A      4.003397  
     367A      4.009335   368A      4.015559   369A      4.028704  
     370A      4.042540   371A      4.050735   372A      4.057747  
     373A      4.075706   374A      4.092831   375A      4.099899  
     376A      4.104543   377A      4.122191   378A      4.147637  
     379A      4.171821   380A      4.186883   381A      4.201046  
     382A      4.212138   383A      4.235422   384A      4.244430  
     385A      4.256893   386A      4.283168   387A      4.294208  
     388A      4.297116   389A      4.310007   390A      4.324843  
     391A      4.338077   392A      4.352135   393A      4.365866  
     394A      4.386749   395A      4.420812   396A      4.432770  
     397A      4.449446   398A      4.453611   399A      4.486463  
     400A      4.540949   401A      4.567031   402A      4.582448  
     403A      4.620364   404A      4.629589   405A      4.660883  
     406A      4.667832   407A      4.678597   408A      4.694283  
     409A      4.715616   410A      4.729853   411A      4.748577  
     412A      4.753861   413A      4.758966   414A      4.781308  
     415A      4.797597   416A      4.816411   417A      4.834798  
     418A      4.836481   419A      4.855925   420A      4.867736  
     421A      4.884808   422A      4.890386   423A      4.912259  
     424A      4.925580   425A      4.941835   426A      4.971488  
     427A      5.006716   428A      5.011258   429A      5.026437  
     430A      5.048263   431A      5.066673   432A      5.088031  
     433A      5.106347   434A      5.125363   435A      5.152710  
     436A      5.163092   437A      5.165507   438A      5.193666  
     439A      5.209639   440A      5.240633   441A      5.251683  
     442A      5.267708   443A      5.285721   444A      5.303989  
     445A      5.306860   446A      5.333485   447A      5.346250  
     448A      5.369032   449A      5.395482   450A      5.415338  
     451A      5.420923   452A      5.441529   453A      5.444144  
     454A      5.456393   455A      5.491494   456A      5.505197  
     457A      5.529177   458A      5.567988   459A      5.581060  
     460A      5.593889   461A      5.618150   462A      5.621785  
     463A      5.638153   464A      5.670611   465A      5.684796  
     466A      5.704805   467A      5.718975   468A      5.736746  
     469A      5.741894   470A      5.780988   471A      5.809352  
     472A      5.840423   473A      5.863900   474A      5.904999  
     475A      5.918042   476A      5.938188   477A      6.011778  
     478A      6.025883   479A      6.055785   480A      6.103700  
     481A      6.136714   482A      6.182812   483A      6.208420  
     484A      6.215332   485A      6.247039   486A      6.274784  
     487A      6.291756   488A      6.299655   489A      6.331363  
     490A      6.359989   491A      6.379273   492A      6.515965  
     493A      6.601133   494A      6.624287   495A      6.772772  
     496A      6.791194   497A      6.845637   498A      6.869695  
     499A      6.891250   500A      6.968148   501A      7.042872  
     502A     17.763119   503A     18.031263   504A     18.084642  
     505A     18.457201   506A     19.152470  

    Final Occupation by Irrep:
              A 
    DOCC [    21 ]

  Energy converged.

  @DF-RHF Final Energy:  -196.40239980033212

   => Energetics <=

    Nuclear Repulsion Energy =            188.1334023456094826
    One-Electron Energy =                -636.1370059444582239
    Two-Electron Energy =                 251.6012037985165648
    DFT Exchange-Correlation Energy =       0.0000000000000000
    Empirical Dispersion Energy =           0.0000000000000000
    PCM Polarization Energy =               0.0000000000000000
    EFP Energy =                            0.0000000000000000
    Total Energy =                       -196.4023998003321481


  Saving occupied orbitals to File 180.

*** tstop() called on wr37 at Wed Sep 21 11:05:09 2016
Module time:
	user time   =     214.17 seconds =       3.57 minutes
	system time =       3.65 seconds =       0.06 minutes
	total time  =         22 seconds =       0.37 minutes
Total time:
	user time   =    1302.16 seconds =      21.70 minutes
	system time =      29.56 seconds =       0.49 minutes
	total time  =        135 seconds =       2.25 minutes


Properties will be evaluated at   0.000000,   0.000000,   0.000000 Bohr

Properties computed using the SCF density matrix

  Nuclear Dipole Moment: (a.u.)
     X:     0.2687      Y:    -0.6346      Z:     0.2730

  Electronic Dipole Moment: (a.u.)
     X:    -0.2852      Y:     0.6437      Z:    -0.2901

  Dipole Moment: (a.u.)
     X:    -0.0166      Y:     0.0091      Z:    -0.0171     Total:     0.0255

  Dipole Moment: (Debye)
     X:    -0.0421      Y:     0.0232      Z:    -0.0436     Total:     0.0648


  //>>>>>>>>>>>>>>>>>>>>>>>>>>>>>>>>>>>//
  //               DFMP2               //
  //<<<<<<<<<<<<<<<<<<<<<<<<<<<<<<<<<<<//


*** tstart() called on wr37
*** at Wed Sep 21 11:05:09 2016


*** tstop() called on wr37 at Wed Sep 21 11:05:09 2016
Module time:
	user time   =       3.94 seconds =       0.07 minutes
	system time =       0.20 seconds =       0.00 minutes
	total time  =          0 seconds =       0.00 minutes
Total time:
	user time   =    1306.78 seconds =      21.78 minutes
	system time =      29.79 seconds =       0.50 minutes
	total time  =        135 seconds =       2.25 minutes
	 --------------------------------------------------------
	                          DF-MP2                         
	      2nd-Order Density-Fitted Moller-Plesset Theory     
	              RMP2 Wavefunction,  12 Threads             
	                                                         
	        Rob Parrish, Justin Turney, Andy Simmonett,      
	           Ed Hohenstein, and C. David Sherrill          
	 --------------------------------------------------------

   => Auxiliary Basis Set <=

  Basis Set: 
    Number of shells: 308
    Number of basis function: 1082
    Number of Cartesian functions: 1340
    Spherical Harmonics?: true
    Max angular momentum: 4

	 --------------------------------------------------------
	                 NBF =   506, NAUX =  1082
	 --------------------------------------------------------
	   CLASS    FOCC     OCC    AOCC    AVIR     VIR    FVIR
	   PAIRS       5      21      16     485     485       0
	 --------------------------------------------------------

DGAS Warning! /src/lib/libfock/apps.cc:80 is not currently checking restricted

         ------------------------------------------------------------
                                     CPHF                           
                                  Rob Parrish                       
         ------------------------------------------------------------

  ==> Geometry <==

    Molecular point group: c1
    Full point group: C1

    Geometry (in Angstrom), charge = 0, multiplicity = 1:

       Center              X                  Y                   Z               Mass       
    ------------   -----------------  -----------------  -----------------  -----------------
           C         -2.096388225714    -0.668597593773     0.184425477539    12.000000000000
           H         -2.059050327605    -0.770987067123     1.270773752143     1.007825032070
           H         -1.639832798807    -1.557725062199    -0.249327602924     1.007825032070
           H         -3.144739845384    -0.659449885087    -0.113170856760     1.007825032070
           C          2.423468765987    -0.189133258355     0.126886640539    12.000000000000
           H          3.072453846769    -0.976727424232    -0.255408813559     1.007825032070
           H          2.806997418605     0.766544398485    -0.233669435957     1.007825032070
           H          2.503663330807    -0.188072056924     1.215092112589     1.007825032070
           C          0.975907437640    -0.390619497092    -0.306733984053    12.000000000000
           H          0.629755624141    -1.369237553890     0.032344740206     1.007825032070
           H          0.914755583762    -0.401193965686    -1.399347632039     1.007825032070
           C          0.057272801693     0.700563454958     0.232993824833    12.000000000000
           H          0.066144042140     0.667342391066     1.327823702206     1.007825032070
           H          0.469692502114     1.674404394562    -0.047726171151     1.007825032070
           C         -1.384328853778     0.604637648179    -0.262027142267    12.000000000000
           H         -1.941693394370     1.472507295092     0.097913743284     1.007825032070
           H         -1.391571546262     0.665682348519    -1.354113858759     1.007825032070

  Nuclear repulsion =  188.133402345609483
  Reference energy  = -196.402399800332120

  ==> Basis Set <==

  Basis Set: AUG-CC-PVTZ
    Number of shells: 178
    Number of basis function: 506
    Number of Cartesian functions: 575
    Spherical Harmonics?: true
    Max angular momentum: 3

  ==> CGRSolver (by Rob Parrish) <==

   Number of roots    =         1
   Preconditioning    =    JACOBI
   Convergence cutoff =     1E-06
   Maximum iterations =       100

  ==> CPHFRHamiltonian (by Rob Parrish) <== 

  ==> DFJK: Density-Fitted J/K Matrices <==

    J tasked:                  Yes
    K tasked:                  Yes
    wK tasked:                  No
    OpenMP threads:             12
    Integrals threads:          12
    Memory (MB):             42915
    Algorithm:                Core
    Integral Cache:           NONE
    Schwarz Cutoff:          1E-12
    Fitting Condition:       1E-12

   => Auxiliary Basis Set <=

  Basis Set: 
    Number of shells: 318
    Number of basis function: 1072
    Number of Cartesian functions: 1315
    Spherical Harmonics?: true
    Max angular momentum: 4

  ==> CPHF Iterations <==

  => Iterations <=

             Iter  Converged  Remaining    Residual
  CGR           1          0          1   9.163E-02
  CGR           2          0          1   1.306E-02
  CGR           3          0          1   3.692E-03
  CGR           4          0          1   8.424E-04
  CGR           5          0          1   1.773E-04
  CGR           6          0          1   3.974E-05
  CGR           7          0          1   1.068E-05
  CGR           8          0          1   2.491E-06
  CGR           9          1          0   6.300E-07

    CGRSolver converged.

  ==> DFCorrGrad: Density-Fitted Correlated Gradients <==

    OpenMP threads:             12
    Integrals threads:          12
    Memory (MB):             42915
    Schwarz Cutoff:          0E+00
    Fitting Condition:       1E-12

   => Auxiliary Basis Set <=

  Basis Set: 
    Number of shells: 318
    Number of basis function: 1072
    Number of Cartesian functions: 1315
    Spherical Harmonics?: true
    Max angular momentum: 4

	-----------------------------------------------------------
	 ==================> DF-MP2 Energies <==================== 
	-----------------------------------------------------------
	 Reference Energy          =    -196.4023998003321196 [Eh]
	 Singles Energy            =      -0.0000000000000000 [Eh]
	 Same-Spin Energy          =      -0.1950749030767319 [Eh]
	 Opposite-Spin Energy      =      -0.7117520076582440 [Eh]
	 Correlation Energy        =      -0.9068269107349759 [Eh]
	 Total Energy              =    -197.3092267110670832 [Eh]
	-----------------------------------------------------------
	 ================> DF-SCS-MP2 Energies <================== 
	-----------------------------------------------------------
	 SCS Same-Spin Scale       =       0.3333333333333333 [-]
	 SCS Opposite-Spin Scale   =       1.2000000000000000 [-]
	 SCS Same-Spin Energy      =      -0.0650249676922440 [Eh]
	 SCS Opposite-Spin Energy  =      -0.8541024091898928 [Eh]
	 SCS Correlation Energy    =      -0.9191273768821367 [Eh]
	 SCS Total Energy          =    -197.3215271772142501 [Eh]
	-----------------------------------------------------------


  -Total Gradient:
     Atom            X                  Y                   Z
    ------   -----------------  -----------------  -----------------
       1       -0.000221072090     0.000193514091    -0.000207132778
       2       -0.000076204934    -0.000181204692     0.000253997065
       3       -0.000084781712    -0.000200647483    -0.000058506695
       4       -0.000094889444    -0.000131655254     0.000099295254
       5        0.000069066691    -0.000280402961    -0.000216513253
       6        0.000136353556    -0.000004607451     0.000025465545
       7        0.000193274983     0.000191275309    -0.000033760859
       8        0.000081743866     0.000036054001     0.000213550581
       9        0.000290436714     0.000318986746     0.000268943595
      10       -0.000027626339    -0.000192284135    -0.000007427160
      11       -0.000069075518    -0.000171769932    -0.000293993866
      12       -0.000217800360    -0.000186211344    -0.000219117974
      13        0.000028985584     0.000153862363     0.000132241212
      14        0.000100605393     0.000147257811     0.000132552255
      15        0.000005947708    -0.000019639825     0.000182895156
      16       -0.000096100641     0.000168772882    -0.000118012426
      17       -0.000018863457     0.000158699875    -0.000154475650


			-----------------------------------------
			 OPTKING 2.0: for geometry optimizations 
			  - R.A. King,  Bethel University        
			-----------------------------------------

	Previous internal coordinate definitions found.
	---Fragment 1 Geometry and Gradient---
	 C          -3.9615996148       -1.2634663453        0.3485136445
	 H          -3.8910412130       -1.4569544089        2.4014143684
	 H          -3.0988348935       -2.9436737579       -0.4711608869
	 H          -5.9426970669       -1.2461796812       -0.2138619255
	 C           4.5796922593       -0.3574100609        0.2397810005
	 H           5.8060963263       -1.8457473383       -0.4826527096
	 H           5.3044563769        1.4485589818       -0.4415712396
	 H           4.7312380242       -0.3554046808        2.2961913190
	 C           1.8441977882       -0.7381638717       -0.5796432255
	 H           1.1900656603       -2.5874839877        0.0611227008
	 H           1.7286375318       -0.7581467213       -2.6443837893
	 C           0.1082299101        1.3238730686        0.4402945196
	 H           0.1249941250        1.2610943560        2.5092231499
	 H           0.8875901957        3.1641657414       -0.0901893928
	 C          -2.6160024115        1.1425995647       -0.4951595383
	 H          -3.6692687494        2.7826355164        0.1850301595
	 H          -2.6296891168        1.2579573302       -2.5589043458
	            -0.0002210721        0.0001935141       -0.0002071328
	            -0.0000762049       -0.0001812047        0.0002539971
	            -0.0000847817       -0.0002006475       -0.0000585067
	            -0.0000948894       -0.0001316553        0.0000992953
	             0.0000690667       -0.0002804030       -0.0002165133
	             0.0001363536       -0.0000046075        0.0000254655
	             0.0001932750        0.0001912753       -0.0000337609
	             0.0000817439        0.0000360540        0.0002135506
	             0.0002904367        0.0003189867        0.0002689436
	            -0.0000276263       -0.0001922841       -0.0000074272
	            -0.0000690755       -0.0001717699       -0.0002939939
	            -0.0002178004       -0.0001862113       -0.0002191180
	             0.0000289856        0.0001538624        0.0001322412
	             0.0001006054        0.0001472578        0.0001325523
	             0.0000059477       -0.0000196398        0.0001828952
	            -0.0000961006        0.0001687729       -0.0001180124
	            -0.0000188635        0.0001586999       -0.0001544756

	---Fragment 1 Intrafragment Coordinates---
	 - Coordinate -           - BOHR/RAD -       - ANG/DEG -
	 R(1,2)           =         2.063206	       1.091801
	 R(1,3)           =         2.058962	       1.089556
	 R(1,4)           =         2.059445	       1.089811
	 R(1,15)          =         2.882979	       1.525607
	 R(5,6)           =         2.059399	       1.089787
	 R(5,7)           =         2.061807	       1.091061
	 R(5,8)           =         2.061988	       1.091157
	 R(5,9)           =         2.880861	       1.524486
	 R(9,10)          =         2.063602	       1.092011
	 R(9,11)          =         2.068068	       1.094375
	 R(9,12)          =         2.881988	       1.525082
	 R(12,13)         =         2.069949	       1.095370
	 R(12,14)         =         2.067726	       1.094194
	 R(12,15)         =         2.886066	       1.527240
	 R(15,16)         =         2.064400	       1.092433
	 R(15,17)         =         2.067012	       1.093815
	 B(1,15,12)       =         1.980278	     113.461553
	 B(1,15,16)       =         1.905475	     109.175687
	 B(1,15,17)       =         1.913105	     109.612869
	 B(2,1,3)         =         1.881001	     107.773402
	 B(2,1,4)         =         1.881147	     107.781760
	 B(2,1,15)        =         1.932088	     110.700489
	 B(3,1,4)         =         1.876776	     107.531352
	 B(3,1,15)        =         1.948703	     111.652447
	 B(4,1,15)        =         1.941279	     111.227105
	 B(5,9,10)        =         1.908279	     109.336351
	 B(5,9,11)        =         1.915922	     109.774272
	 B(5,9,12)        =         1.957060	     112.131275
	 B(6,5,7)         =         1.883642	     107.924727
	 B(6,5,8)         =         1.882609	     107.865578
	 B(6,5,9)         =         1.949987	     111.726012
	 B(7,5,8)         =         1.878513	     107.630847
	 B(7,5,9)         =         1.934301	     110.827289
	 B(8,5,9)         =         1.932195	     110.706620
	 B(9,12,13)       =         1.904080	     109.095771
	 B(9,12,14)       =         1.895430	     108.600164
	 B(9,12,15)       =         1.992073	     114.137360
	 B(10,9,11)       =         1.858381	     106.477388
[...]
      15       -0.000000188530     0.000000046365    -0.000000121311
      16       -0.000000030066     0.000000092510     0.000000119566
      17        0.000000095477     0.000000007295    -0.000000153660


			-----------------------------------------
			 OPTKING 2.0: for geometry optimizations 
			  - R.A. King,  Bethel University        
			-----------------------------------------

	Previous internal coordinate definitions found.
	---Fragment 1 Geometry and Gradient---
	 C          -3.9531747159       -1.2619174011        0.3706184374
	 H          -3.8948113491       -1.4158459699        2.4263783021
	 H          -3.0741191805       -2.9500855247       -0.4130173692
	 H          -5.9297682728       -1.2644579149       -0.2069358944
	 C           4.5719541598       -0.3629383916        0.2520966181
	 H           5.8012516600       -1.8461394916       -0.4754374411
	 H           5.3018909365        1.4480516365       -0.4078764124
	 H           4.7071743584       -0.3803965648        2.3088543984
	 C           1.8432475741       -0.7331216165       -0.5911461036
	 H           1.1792023626       -2.5826816554        0.0360816071
	 H           1.7442368862       -0.7396713481       -2.6558285483
	 C           0.1082068279        1.3299542587        0.4252514035
	 H           0.1279748493        1.2727393450        2.4938919649
	 H           0.8829975962        3.1685057487       -0.1157417427
	 C          -2.6158032338        1.1359427380       -0.5054309284
	 H          -3.6714637798        2.7805728402        0.1583662104
	 H          -2.6319791708        1.2244288595       -2.5699373108
	            -0.0000001010       -0.0000002351        0.0000001187
	             0.0000000031        0.0000000093        0.0000001265
	             0.0000000669       -0.0000000665       -0.0000000723
	            -0.0000000764        0.0000000641       -0.0000000483
	             0.0000001131        0.0000000309        0.0000000369
	             0.0000000135        0.0000000108        0.0000000357
	            -0.0000000223       -0.0000000086       -0.0000000108
	            -0.0000000138       -0.0000000196       -0.0000000153
	             0.0000000923       -0.0000001521       -0.0000001311
	            -0.0000000461       -0.0000000105        0.0000000644
	             0.0000000161        0.0000000351       -0.0000000666
	             0.0000001510        0.0000002086        0.0000001454
	            -0.0000000686       -0.0000000472        0.0000000759
	            -0.0000000048        0.0000000346       -0.0000001036
	            -0.0000001885        0.0000000464       -0.0000001213
	            -0.0000000301        0.0000000925        0.0000001196
	             0.0000000955        0.0000000073       -0.0000001537

	---Fragment 1 Intrafragment Coordinates---
	 - Coordinate -           - BOHR/RAD -       - ANG/DEG -
	 R(1,2)           =         2.062341	       1.091344
	 R(1,3)           =         2.058333	       1.089223
	 R(1,4)           =         2.059247	       1.089706
	 R(1,15)          =         2.881971	       1.525073
	 R(5,6)           =         2.059214	       1.089689
	 R(5,7)           =         2.061082	       1.090677
	 R(5,8)           =         2.061272	       1.090778
	 R(5,9)           =         2.879919	       1.523988
	 R(9,10)          =         2.062824	       1.091599
	 R(9,11)          =         2.067065	       1.093844
	 R(9,12)          =         2.880922	       1.524518
	 R(12,13)         =         2.069526	       1.095146
	 R(12,14)         =         2.067183	       1.093906
	 R(12,15)         =         2.885141	       1.526751
	 R(15,16)         =         2.063941	       1.092191
	 R(15,17)         =         2.066465	       1.093526
	 B(1,15,12)       =         1.977980	     113.329887
	 B(1,15,16)       =         1.904848	     109.139756
	 B(1,15,17)       =         1.913126	     109.614034
	 B(2,1,3)         =         1.881993	     107.830245
	 B(2,1,4)         =         1.882463	     107.857182
	 B(2,1,15)        =         1.930475	     110.608080
	 B(3,1,4)         =         1.877733	     107.586168
	 B(3,1,15)        =         1.948173	     111.622106
	 B(4,1,15)        =         1.940343	     111.173449
	 B(5,9,10)        =         1.908402	     109.343402
	 B(5,9,11)        =         1.915858	     109.770580
	 B(5,9,12)        =         1.955495	     112.041617
	 B(6,5,7)         =         1.884229	     107.958380
	 B(6,5,8)         =         1.883120	     107.894828
	 B(6,5,9)         =         1.949372	     111.690777
	 B(7,5,8)         =         1.879386	     107.680889
	 B(7,5,9)         =         1.933435	     110.777684
	 B(8,5,9)         =         1.931814	     110.684815
	 B(9,12,13)       =         1.904031	     109.092922
	 B(9,12,14)       =         1.895319	     108.593761
	 B(9,12,15)       =         1.989586	     113.994896
	 B(10,9,11)       =         1.860274	     106.585858
	 B(10,9,12)       =         1.918708	     109.933890
	 B(11,9,12)       =         1.902673	     109.015132
	 B(12,15,16)      =         1.902424	     109.000889
	 B(12,15,17)      =         1.903694	     109.073643
	 B(13,12,14)      =         1.857302	     106.415566
	 B(13,12,15)      =         1.906675	     109.244445
	 B(14,12,15)      =         1.906316	     109.223873
	 B(16,15,17)      =         1.857912	     106.450505
	 D(1,15,12,9)     =         1.113814	      63.816841
	 D(1,15,12,13)    =        -1.021051	     -58.501910
	 D(1,15,12,14)    =        -3.046043	    -174.525402
	 D(2,1,15,12)     =         0.974543	      55.837206
	 D(2,1,15,16)     =        -1.148970	     -65.831129
	 D(2,1,15,17)     =         3.105704	     177.943733
	 D(3,1,15,12)     =        -1.120942	     -64.225218
	 D(3,1,15,16)     =         3.038731	     174.106446
	 D(3,1,15,17)     =         1.010219	      57.881308
	 D(4,1,15,12)     =         3.065456	     175.637681
	 D(4,1,15,16)     =         0.941943	      53.969346
	 D(4,1,15,17)     =        -1.086569	     -62.255793
	 D(5,9,12,13)     =        -1.069511	     -61.278463
	 D(5,9,12,14)     =         0.947962	      54.314209
	 D(5,9,12,15)     =         3.077359	     176.319660
	 D(6,5,9,10)      =         1.006861	      57.688877
	 D(6,5,9,11)      =        -1.028082	     -58.904765
	 D(6,5,9,12)      =         3.138562	     179.826371
	 D(7,5,9,10)      =         3.107991	     178.074776
	 D(7,5,9,11)      =         1.073048	      61.481133
	 D(7,5,9,12)      =        -1.043493	     -59.787730
	 D(8,5,9,10)      =        -1.091757	     -62.553081
	 D(8,5,9,11)      =        -3.126700	    -179.146723
	 D(8,5,9,12)      =         1.039944	      59.584413
	 D(9,12,15,16)    =        -3.044502	    -174.437117
	 D(9,12,15,17)    =        -1.022593	     -58.590274
	 D(10,9,12,13)    =         1.056298	      60.521408
	 D(10,9,12,14)    =         3.073771	     176.114080
	 D(10,9,12,15)    =        -1.080018	     -61.880469
	 D(11,9,12,13)    =         3.089555	     177.018473
	 D(11,9,12,14)    =        -1.176157	     -67.388855
	 D(11,9,12,15)    =         0.953239	      54.616596
	 D(13,12,15,16)   =         1.103818	      63.244133
	 D(13,12,15,17)   =         3.125727	     179.090975
	 D(14,12,15,16)   =        -0.921174	     -52.779360
	 D(14,12,15,17)   =         1.100735	      63.067483

	Current energy   :      -197.3092364246

	Energy change for the previous step:
		Projected    :        -0.0000000001
		Actual       :        -0.0000000004
	Energy ratio indicates good step: Trust radius increased to 2.812e-01.


	Performing BFGS update.
	Previous computed or guess Hessian on step 1.
	Denominators (dg)(dq) or (dq)(dq) are very small.
	 Skipping Hessian update for step 7.
	Denominators (dg)(dq) or (dq)(dq) are very small.
	 Skipping Hessian update for step 6.
	Denominators (dg)(dq) or (dq)(dq) are very small.
	 Skipping Hessian update for step 5.
	Steps to be used in Hessian update: 4 3
	Taking RFO optimization step.
	Going to follow RFO solution 1.
	Using RFO vector 1.
	Norm of target step-size    0.00001
	Projected energy change by RFO approximation:        -0.0000000000

	Back-transformation to cartesian coordinates...
	Successfully converged to displaced geometry.

	--- Internal Coordinate Step in ANG or DEG, aJ/ANG or AJ/DEG ---
	 ---------------------------------------------------------------------------
	   Coordinate                Previous        Force       Change         New 
	   ----------                --------       ------       ------       ------
	    1 R(1,2)          =      1.091344    -0.000001    -0.000000     1.091343
	    2 R(1,3)          =      1.089223    -0.000001    -0.000000     1.089223
	    3 R(1,4)          =      1.089706    -0.000001    -0.000000     1.089706
	    4 R(1,15)         =      1.525073    -0.000002    -0.000000     1.525073
	    5 R(5,6)          =      1.089689     0.000000    -0.000000     1.089689
	    6 R(5,7)          =      1.090677     0.000000     0.000000     1.090677
	    7 R(5,8)          =      1.090778     0.000000     0.000000     1.090778
	    8 R(5,9)          =      1.523988    -0.000001    -0.000000     1.523987
	    9 R(9,10)         =      1.091599    -0.000000    -0.000000     1.091599
	   10 R(9,11)         =      1.093844    -0.000001    -0.000000     1.093844
	   11 R(9,12)         =      1.524518    -0.000002    -0.000000     1.524518
	   12 R(12,13)        =      1.095146    -0.000001    -0.000000     1.095146
	   13 R(12,14)        =      1.093906    -0.000000    -0.000000     1.093906
	   14 R(12,15)        =      1.526751    -0.000002    -0.000000     1.526751
	   15 R(15,16)        =      1.092191    -0.000001    -0.000000     1.092191
	   16 R(15,17)        =      1.093526    -0.000001    -0.000000     1.093526
	   17 B(1,15,12)      =    113.329887    -0.000000    -0.000010   113.329876
	   18 B(1,15,16)      =    109.139756     0.000000     0.000015   109.139771
	   19 B(1,15,17)      =    109.614034    -0.000000    -0.000033   109.614001
	   20 B(2,1,3)        =    107.830245    -0.000000    -0.000024   107.830221
	   21 B(2,1,4)        =    107.857182    -0.000000    -0.000014   107.857168
	   22 B(2,1,15)       =    110.608080    -0.000000    -0.000003   110.608077
	   23 B(3,1,4)        =    107.586168    -0.000000    -0.000019   107.586148
	   24 B(3,1,15)       =    111.622106     0.000000     0.000013   111.622118
	   25 B(4,1,15)       =    111.173449     0.000000     0.000044   111.173494
	   26 B(5,9,10)       =    109.343402    -0.000000    -0.000000   109.343402
	   27 B(5,9,11)       =    109.770580     0.000000    -0.000007   109.770572
	   28 B(5,9,12)       =    112.041617     0.000000     0.000013   112.041630
	   29 B(6,5,7)        =    107.958380    -0.000000    -0.000006   107.958373
	   30 B(6,5,8)        =    107.894828     0.000000     0.000010   107.894838
	   31 B(6,5,9)        =    111.690777    -0.000000    -0.000013   111.690763
	   32 B(7,5,8)        =    107.680889    -0.000000    -0.000013   107.680877
	   33 B(7,5,9)        =    110.777684     0.000000     0.000009   110.777693
	   34 B(8,5,9)        =    110.684815     0.000000     0.000013   110.684828
	   35 B(9,12,13)      =    109.092922    -0.000000    -0.000002   109.092920
	   36 B(9,12,14)      =    108.593761     0.000000     0.000005   108.593766
	   37 B(9,12,15)      =    113.994896    -0.000000    -0.000002   113.994895
	   38 B(10,9,11)      =    106.585858    -0.000000    -0.000032   106.585826
	   39 B(10,9,12)      =    109.933890     0.000000     0.000033   109.933923
	   40 B(11,9,12)      =    109.015132    -0.000000    -0.000009   109.015123
	   41 B(12,15,16)     =    109.000889     0.000000     0.000042   109.000932
	   42 B(12,15,17)     =    109.073643     0.000000     0.000027   109.073670
	   43 B(13,12,14)     =    106.415566    -0.000000    -0.000053   106.415513
	   44 B(13,12,15)     =    109.244445     0.000000     0.000032   109.244476
	   45 B(14,12,15)     =    109.223873     0.000000     0.000016   109.223889
	   46 B(16,15,17)     =    106.450505    -0.000000    -0.000043   106.450462
	   47 D(1,15,12,9)    =     63.816841    -0.000000     0.000052    63.816893
	   48 D(1,15,12,13)   =    -58.501910    -0.000000     0.000032   -58.501878
	   49 D(1,15,12,14)   =   -174.525402    -0.000000     0.000069  -174.525334
	   50 D(2,1,15,12)    =     55.837206    -0.000000     0.000091    55.837297
	   51 D(2,1,15,16)    =    -65.831129    -0.000000     0.000033   -65.831096
	   52 D(2,1,15,17)    =    177.943733     0.000000     0.000095   177.943827
	   53 D(3,1,15,12)    =    -64.225218     0.000000     0.000116   -64.225103
	   54 D(3,1,15,16)    =    174.106446    -0.000000     0.000058   174.106504
	   55 D(3,1,15,17)    =     57.881308     0.000000     0.000119    57.881427
	   56 D(4,1,15,12)    =    175.637681     0.000000     0.000102   175.637782
	   57 D(4,1,15,16)    =     53.969346    -0.000000     0.000044    53.969389
	   58 D(4,1,15,17)    =    -62.255793     0.000000     0.000105   -62.255688
	   59 D(5,9,12,13)    =    -61.278463     0.000000    -0.000141   -61.278604
	   60 D(5,9,12,14)    =     54.314209    -0.000000    -0.000202    54.314007
	   61 D(5,9,12,15)    =    176.319660    -0.000000    -0.000179   176.319481
	   62 D(6,5,9,10)     =     57.688877    -0.000000     0.000003    57.688880
	   63 D(6,5,9,11)     =    -58.904765     0.000000     0.000045   -58.904720
	   64 D(6,5,9,12)     =    179.826371     0.000000     0.000053   179.826424
	   65 D(7,5,9,10)     =    178.074776    -0.000000    -0.000008   178.074768
	   66 D(7,5,9,11)     =     61.481133     0.000000     0.000034    61.481168
	   67 D(7,5,9,12)     =    -59.787730     0.000000     0.000042   -59.787688
	   68 D(8,5,9,10)     =    -62.553081    -0.000000    -0.000010   -62.553090
	   69 D(8,5,9,11)     =   -179.146723     0.000000     0.000033  -179.146690
	   70 D(8,5,9,12)     =     59.584413     0.000000     0.000041    59.584454
	   71 D(9,12,15,16)   =   -174.437117     0.000000     0.000095  -174.437022
	   72 D(9,12,15,17)   =    -58.590274     0.000000     0.000082   -58.590192
	   73 D(10,9,12,13)   =     60.521408     0.000000    -0.000109    60.521300
	   74 D(10,9,12,14)   =    176.114080    -0.000000    -0.000170   176.113910
	   75 D(10,9,12,15)   =    -61.880469    -0.000000    -0.000147   -61.880616
	   76 D(11,9,12,13)   =    177.018473     0.000000    -0.000133   177.018340
	   77 D(11,9,12,14)   =    -67.388855    -0.000000    -0.000195   -67.389050
	   78 D(11,9,12,15)   =     54.616596    -0.000000    -0.000172    54.616424
	   79 D(13,12,15,16)  =     63.244133     0.000000     0.000075    63.244207
	   80 D(13,12,15,17)  =    179.090975     0.000000     0.000062   179.091037
	   81 D(14,12,15,16)  =    -52.779360     0.000000     0.000111   -52.779249
	   82 D(14,12,15,17)  =     63.067483     0.000000     0.000099    63.067581
	 ---------------------------------------------------------------------------

  ==> Convergence Check <==

  Measures of convergence in internal coordinates in au.
  Criteria marked as inactive (o), active & met (*), and active & unmet ( ).
  ---------------------------------------------------------------------------------------------
   Step     Total Energy     Delta E     MAX Force     RMS Force      MAX Disp      RMS Disp   
  ---------------------------------------------------------------------------------------------
    Convergence Criteria             o    2.00e-06 *    1.00e-06 *    6.00e-06 *    4.00e-06 *
  ---------------------------------------------------------------------------------------------
      8    -197.30923642   -4.05e-10 o    2.70e-07 *    6.48e-08 *    3.52e-06 *    1.23e-06 *  ~
  ---------------------------------------------------------------------------------------------


  **** Optimization is complete! (in 8 steps) ****

  ==> Optimization Summary <==

  Measures of convergence in internal coordinates in au.
  --------------------------------------------------------------------------------------------------------------- ~
   Step         Total Energy             Delta E       MAX Force       RMS Force        MAX Disp        RMS Disp  ~
  --------------------------------------------------------------------------------------------------------------- ~
      1    -197.309070548396   -197.309070548396      0.00440558      0.00109491      0.03080773      0.01148894  ~
      2    -197.309226711067     -0.000156162671      0.00059897      0.00018548      0.01507587      0.00583475  ~
      3    -197.309234789185     -0.000008078118      0.00022264      0.00006388      0.01097913      0.00328472  ~
      4    -197.309236297442     -0.000001508256      0.00005591      0.00001809      0.00152638      0.00057577  ~
      5    -197.309236420721     -0.000000123279      0.00001159      0.00000415      0.00010084      0.00003592  ~
      6    -197.309236424532     -0.000000003811      0.00000227      0.00000067      0.00004104      0.00001509  ~
      7    -197.309236424237      0.000000000295      0.00000086      0.00000020      0.00001261      0.00000530  ~
      8    -197.309236424642     -0.000000000405      0.00000027      0.00000006      0.00000352      0.00000123  ~
  --------------------------------------------------------------------------------------------------------------- ~

	Writing optimization data to binary file.
	Final energy is   -197.3092364246424
	Final (previous) structure:
	Cartesian Geometry (in Angstrom)
	    C    -2.0919299612  -0.6677779278   0.1961228302
	    H    -2.0610453977  -0.7492334182   1.2839840969
	    H    -1.6267538068  -1.5611180231  -0.2185593785
	    H    -3.1378982222  -0.6691223098  -0.1095057589
	    C     2.4193739401  -0.1920587250   0.1334037847
	    H     3.0698901598  -0.9769349428  -0.2515906579
	    H     2.8056398460   0.7662759229  -0.2158389013
	    H     2.4909293873  -0.2012971923   1.2217931256
	    C     0.9754046060  -0.3879512506  -0.3128210450
	    H     0.6240070146  -1.3666962691   0.0190935641
	    H     0.9230104066  -0.3914172193  -1.4054039377
	    C     0.0572605871   0.7037814822   0.2250333507
	    H     0.0677213735   0.6735046538   1.3197107885
	    H     0.4672622031   1.6767010275  -0.0612478923
	    C    -1.3842234535   0.6011150072  -0.2674625279
	    H    -1.9428549544   1.4714157739   0.0838037892
	    H    -1.3927833907   0.6479398460  -1.3599522524
	Saving final (previous) structure.
			--------------------------
			 OPTKING Finished Execution 
			--------------------------

    Final optimized geometry and variables:
    Molecular point group: c1
    Full point group: C1

    Geometry (in Angstrom), charge = 0, multiplicity = 1:

    C           -2.091929961233    -0.667777927798     0.196122830178
    H           -2.061045397701    -0.749233418165     1.283984096898
    H           -1.626753806831    -1.561118023080    -0.218559378548
    H           -3.137898222188    -0.669122309789    -0.109505758947
    C            2.419373940089    -0.192058724969     0.133403784666
    H            3.069890159752    -0.976934942822    -0.251590657915
    H            2.805639846006     0.766275922895    -0.215838901341
    H            2.490929387315    -0.201297192312     1.221793125612
    C            0.975404605982    -0.387951250598    -0.312821044957
    H            0.624007014579    -1.366696269079     0.019093564148
    H            0.923010406568    -0.391417219269    -1.405403937672
    C            0.057260587116     0.703781482181     0.225033350666
    H            0.067721373504     0.673504653843     1.319710788513
    H            0.467262203131     1.676701027493    -0.061247892337
    C           -1.384223453489     0.601115007229    -0.267462527850
    H           -1.942854954410     1.471415773870     0.083803789171
    H           -1.392783390654     0.647939845996    -1.359952252365

	Cleaning optimization helper files.

*** Psi4 exiting successfully. Buy a developer a beer!
