    -----------------------------------------------------------------------
          Psi4: An Open-Source Ab Initio Electronic Structure Package
                              Psi4 1.0.0 Driver

                          Git: Rev {master} 6a9a71b dirty

    J. M. Turney, A. C. Simmonett, R. M. Parrish, E. G. Hohenstein,
    F. A. Evangelista, J. T. Fermann, B. J. Mintz, L. A. Burns, J. J. Wilke,
    M. L. Abrams, N. J. Russ, M. L. Leininger, C. L. Janssen, E. T. Seidl,
    W. D. Allen, H. F. Schaefer, R. A. King, E. F. Valeev, C. D. Sherrill,
    and T. D. Crawford, WIREs Comput. Mol. Sci. 2, 556-565 (2012)
    (doi: 10.1002/wcms.93)

                         Additional Contributions by
    A. E. DePrince, U. Bozkaya, A. Yu. Sokolov, D. G. A. Smith, R. Di Remigio,
    R. M. Richard, J. F. Gonthier, H. R. McAlexander, M. Saitow, and
    B. P. Pritchard
    -----------------------------------------------------------------------


    Psi4 started on: Wed Sep 21 11:02:53 2016

    Process ID:  34329
    PSI4DATADIR: /usr/local/hpc5/psi4conda/share/psi4
    Memory level set to 256.000 MB

  ==> Input File <==

--------------------------------------------------------------------------
memory 60 Gb

molecule molecule_1 {
0 1
C         -2.52300        0.33900        0.01200
H         -2.56800        0.89700       -0.92200
H         -2.53800        1.05800        0.82900
H         -3.42200       -0.26800        0.08300
C          2.52400        0.32200       -0.07300
H          3.42100       -0.29100       -0.03200
H          2.54100        0.88000       -1.00700
H          2.57100        1.04100        0.74300
C          1.26500       -0.51800        0.02600
H          1.27400       -1.08800        0.95600
H          1.24500       -1.24900       -0.78400
C          0.00100        0.31700       -0.02900
H          0.01700        1.04800        0.78200
H         -0.01300        0.88800       -0.96000
C         -1.26700       -0.51000        0.06900
H         -1.27900       -1.24000       -0.74200
H         -1.24900       -1.08000        0.99900
}

set globals {
  reference rhf
  g_convergence gau_verytight
  basis aug-cc-pvtz
  freeze_core true
}
optimize('mp2')
--------------------------------------------------------------------------
/usr/local/hpc5/psi4conda/lib/python2.7/site-packages/v2rdm_casscf/v2rdm_casscf.so loaded.

  Memory set to  60.000 GiB by Python script.
gradient() will perform analytic gradient computation.
    SCF Algorithm Type (re)set to DF.

*** tstart() called on wr38
*** at Wed Sep 21 11:02:54 2016


         ---------------------------------------------------------
                                   SCF
            by Justin Turney, Rob Parrish, and Andy Simmonett
                              RHF Reference
                       12 Threads,  60000 MiB Core
         ---------------------------------------------------------

  ==> Geometry <==

    Molecular point group: c1
    Full point group: C1

    Geometry (in Angstrom), charge = 0, multiplicity = 1:

       Center              X                  Y                   Z               Mass       
    ------------   -----------------  -----------------  -----------------  -----------------
           C         -2.523000000000     0.338990793686     0.011936615675    12.000000000000
           H         -2.568000000000     0.896990793686    -0.922063384325     1.007825032070
           H         -2.538000000000     1.057990793686     0.828936615675     1.007825032070
           H         -3.422000000000    -0.268009206314     0.082936615675     1.007825032070
           C          2.524000000000     0.321990793686    -0.073063384325    12.000000000000
           H          3.421000000000    -0.291009206314    -0.032063384325     1.007825032070
           H          2.541000000000     0.879990793686    -1.007063384325     1.007825032070
           H          2.571000000000     1.040990793686     0.742936615675     1.007825032070
           C          1.265000000000    -0.518009206314     0.025936615675    12.000000000000
           H          1.274000000000    -1.088009206314     0.955936615675     1.007825032070
           H          1.245000000000    -1.249009206314    -0.784063384325     1.007825032070
           C          0.001000000000     0.316990793686    -0.029063384325    12.000000000000
           H          0.017000000000     1.047990793686     0.781936615675     1.007825032070
           H         -0.013000000000     0.887990793686    -0.960063384325     1.007825032070
           C         -1.267000000000    -0.510009206314     0.068936615675    12.000000000000
           H         -1.279000000000    -1.240009206314    -0.742063384325     1.007825032070
           H         -1.249000000000    -1.080009206314     0.998936615675     1.007825032070

  Running in c1 symmetry.

  Rotational constants: A =      0.57370  B =      0.06600  C =      0.06259 [cm^-1]
  Rotational constants: A =  17199.17861  B =   1978.53710  C =   1876.36605 [MHz]
  Nuclear repulsion =  186.265360651771772

  Charge       = 0
  Multiplicity = 1
  Electrons    = 42
  Nalpha       = 21
  Nbeta        = 21

  ==> Algorithm <==

  SCF Algorithm Type is DF.
  DIIS enabled.
  MOM disabled.
  Fractional occupation disabled.
  Guess Type is SAD.
  Energy threshold   = 1.00e-10
  Density threshold  = 1.00e-10
  Integral threshold = 0.00e+00

  ==> Primary Basis <==

  Basis Set: AUG-CC-PVTZ
    Number of shells: 178
    Number of basis function: 506
    Number of Cartesian functions: 575
    Spherical Harmonics?: true
    Max angular momentum: 3

  ==> Pre-Iterations <==

   -------------------------------------------------------
    Irrep   Nso     Nmo     Nalpha   Nbeta   Ndocc  Nsocc
   -------------------------------------------------------
     A        506     506       0       0       0       0
   -------------------------------------------------------
    Total     506     506      21      21      21       0
   -------------------------------------------------------

  ==> Integral Setup <==

  ==> DFJK: Density-Fitted J/K Matrices <==

    J tasked:                  Yes
    K tasked:                  Yes
    wK tasked:                  No
    OpenMP threads:             12
    Integrals threads:          12
    Memory (MB):             42915
    Algorithm:                Core
    Integral Cache:           NONE
    Schwarz Cutoff:          1E-12
    Fitting Condition:       1E-12

   => Auxiliary Basis Set <=

  Basis Set: 
    Number of shells: 318
    Number of basis function: 1072
    Number of Cartesian functions: 1315
    Spherical Harmonics?: true
    Max angular momentum: 4

  Minimum eigenvalue in the overlap matrix is 5.5207845239E-06.
  Using Symmetric Orthogonalization.
  SCF Guess: Superposition of Atomic Densities via on-the-fly atomic UHF.

  ==> Iterations <==

                           Total Energy        Delta E     RMS |[F,P]|

   @DF-RHF iter   0:  -198.18908885587595   -1.98189e+02   8.39389e-03 
   @DF-RHF iter   1:  -196.21920590143012    1.96988e+00   9.92123e-04 
   @DF-RHF iter   2:  -196.37616285013391   -1.56957e-01   3.91623e-04 DIIS
   @DF-RHF iter   3:  -196.40021446694035   -2.40516e-02   1.31264e-04 DIIS
   @DF-RHF iter   4:  -196.40419212175581   -3.97765e-03   2.05235e-05 DIIS
   @DF-RHF iter   5:  -196.40429528243416   -1.03161e-04   6.62072e-06 DIIS
   @DF-RHF iter   6:  -196.40430451705734   -9.23462e-06   1.49622e-06 DIIS
   @DF-RHF iter   7:  -196.40430512107790   -6.04021e-07   2.73557e-07 DIIS
   @DF-RHF iter   8:  -196.40430514513528   -2.40574e-08   5.60840e-08 DIIS
   @DF-RHF iter   9:  -196.40430514618166   -1.04637e-09   1.36084e-08 DIIS
   @DF-RHF iter  10:  -196.40430514623822   -5.65592e-11   3.87396e-09 DIIS
   @DF-RHF iter  11:  -196.40430514624202   -3.80851e-12   9.28399e-10 DIIS
   @DF-RHF iter  12:  -196.40430514624174    2.84217e-13   1.84854e-10 DIIS
   @DF-RHF iter  13:  -196.40430514624225   -5.11591e-13   5.08629e-11 DIIS

  ==> Post-Iterations <==

    Orbital Energies (a.u.)
    -----------------------

    Doubly Occupied:                                                      

       1A    -11.210910     2A    -11.210759     3A    -11.208341  
       4A    -11.205855     5A    -11.205769     6A     -1.084170  
       7A     -1.017464     8A     -0.920090     9A     -0.819703  
      10A     -0.785264    11A     -0.649561    12A     -0.600007  
      13A     -0.594154    14A     -0.555358    15A     -0.548144  
      16A     -0.526150    17A     -0.494615    18A     -0.475584  
      19A     -0.461736    20A     -0.459060    21A     -0.447658  

    Virtual:                                                              

      22A      0.031620    23A      0.034269    24A      0.037957  
      25A      0.039482    26A      0.053484    27A      0.054276  
      28A      0.056393    29A      0.057972    30A      0.078420  
      31A      0.081380    32A      0.083254    33A      0.084085  
      34A      0.092490    35A      0.115911    36A      0.116921  
      37A      0.128778    38A      0.136548    39A      0.138144  
      40A      0.139527    41A      0.145422    42A      0.154816  
      43A      0.155515    44A      0.155679    45A      0.162523  
      46A      0.169474    47A      0.171251    48A      0.176960  
      49A      0.201641    50A      0.204734    51A      0.214666  
      52A      0.222501    53A      0.226211    54A      0.229753  
      55A      0.246713    56A      0.248813    57A      0.263625  
      58A      0.270539    59A      0.271506    60A      0.278037  
      61A      0.296063    62A      0.299528    63A      0.309953  
      64A      0.312232    65A      0.314366    66A      0.335407  
      67A      0.346941    68A      0.349608    69A      0.354734  
      70A      0.356791    71A      0.361943    72A      0.371667  
      73A      0.374857    74A      0.375395    75A      0.378972  
      76A      0.383708    77A      0.384867    78A      0.388433  
      79A      0.388692    80A      0.403095    81A      0.405323  
      82A      0.409740    83A      0.413358    84A      0.423441  
      85A      0.426370    86A      0.434318    87A      0.435698  
      88A      0.439616    89A      0.452989    90A      0.453392  
      91A      0.456188    92A      0.457868    93A      0.466527  
      94A      0.473115    95A      0.478652    96A      0.480143  
      97A      0.480700    98A      0.491416    99A      0.498730  
     100A      0.510632   101A      0.517453   102A      0.518275  
     103A      0.519800   104A      0.528342   105A      0.529145  
     106A      0.531443   107A      0.547526   108A      0.552997  
     109A      0.554004   110A      0.556799   111A      0.564570  
     112A      0.571234   113A      0.584207   114A      0.590582  
     115A      0.608487   116A      0.612175   117A      0.614613  
     118A      0.617740   119A      0.633396   120A      0.645500  
     121A      0.647194   122A      0.657244   123A      0.668784  
     124A      0.670840   125A      0.702730   126A      0.718546  
     127A      0.720333   128A      0.725563   129A      0.740588  
     130A      0.754943   131A      0.785525   132A      0.787156  
     133A      0.804463   134A      0.824131   135A      0.830140  
     136A      0.833901   137A      0.837474   138A      0.843052  
     139A      0.846048   140A      0.861156   141A      0.861998  
     142A      0.866474   143A      0.877973   144A      0.883244  
     145A      0.888496   146A      0.901305   147A      0.903127  
     148A      0.911110   149A      0.922360   150A      0.922597  
     151A      0.931799   152A      0.932226   153A      0.934406  
     154A      0.937589   155A      0.952502   156A      0.960131  
     157A      0.969015   158A      0.972307   159A      0.973435  
     160A      0.973829   161A      0.985062   162A      0.987271  
     163A      1.009414   164A      1.014512   165A      1.018779  
     166A      1.035381   167A      1.041023   168A      1.045947  
     169A      1.055807   170A      1.081156   171A      1.095232  
     172A      1.098870   173A      1.109304   174A      1.112732  
     175A      1.124251   176A      1.128916   177A      1.143213  
     178A      1.156037   179A      1.156668   180A      1.159716  
     181A      1.164127   182A      1.167616   183A      1.169757  
     184A      1.171660   185A      1.175936   186A      1.177922  
     187A      1.189539   188A      1.207334   189A      1.212776  
     190A      1.242869   191A      1.244149   192A      1.249039  
     193A      1.253756   194A      1.254107   195A      1.264078  
     196A      1.272141   197A      1.284161   198A      1.286333  
     199A      1.309301   200A      1.309642   201A      1.317345  
     202A      1.321171   203A      1.336340   204A      1.345599  
     205A      1.358688   206A      1.359909   207A      1.371299  
     208A      1.392320   209A      1.398778   210A      1.402353  
     211A      1.427374   212A      1.428396   213A      1.445552  
     214A      1.461375   215A      1.465779   216A      1.481571  
     217A      1.502151   218A      1.507128   219A      1.540704  
     220A      1.563414   221A      1.568924   222A      1.576259  
     223A      1.582212   224A      1.583037   225A      1.591544  
     226A      1.605603   227A      1.618010   228A      1.624609  
     229A      1.632447   230A      1.652252   231A      1.658704  
     232A      1.663187   233A      1.673144   234A      1.683574  
     235A      1.689058   236A      1.694252   237A      1.698903  
     238A      1.701434   239A      1.720139   240A      1.727646  
     241A      1.736891   242A      1.744554   243A      1.749834  
     244A      1.753064   245A      1.770905   246A      1.776128  
     247A      1.777606   248A      1.786605   249A      1.797800  
     250A      1.797816   251A      1.808787   252A      1.813352  
     253A      1.819896   254A      1.852232   255A      1.854772  
     256A      1.855208   257A      1.886592   258A      1.895707  
     259A      1.917212   260A      1.920264   261A      1.943045  
     262A      1.943865   263A      1.944968   264A      1.961312  
     265A      1.962728   266A      1.972348   267A      1.989884  
     268A      2.004238   269A      2.010053   270A      2.016686  
     271A      2.045509   272A      2.055955   273A      2.061704  
     274A      2.084712   275A      2.095293   276A      2.098374  
     277A      2.124976   278A      2.156324   279A      2.160387  
     280A      2.169785   281A      2.184468   282A      2.187392  
     283A      2.193332   284A      2.247018   285A      2.248164  
     286A      2.252591   287A      2.253678   288A      2.258741  
     289A      2.289367   290A      2.292211   291A      2.320256  
     292A      2.325235   293A      2.335443   294A      2.343389  
     295A      2.343795   296A      2.366238   297A      2.393190  
     298A      2.402355   299A      2.422055   300A      2.445752  
     301A      2.458817   302A      2.463581   303A      2.481639  
     304A      2.483490   305A      2.497143   306A      2.510047  
     307A      2.576503   308A      2.588870   309A      2.646291  
     310A      2.653002   311A      2.714035   312A      2.727505  
     313A      2.740876   314A      2.836158   315A      2.930995  
     316A      2.943299   317A      3.026353   318A      3.118726  
     319A      3.237585   320A      3.255044   321A      3.291594  
     322A      3.350511   323A      3.422622   324A      3.436384  
     325A      3.452977   326A      3.467748   327A      3.488943  
     328A      3.496465   329A      3.500377   330A      3.525797  
     331A      3.526745   332A      3.535892   333A      3.599108  
     334A      3.600996   335A      3.605604   336A      3.608790  
     337A      3.619031   338A      3.651353   339A      3.685514  
     340A      3.686545   341A      3.688672   342A      3.702527  
     343A      3.730924   344A      3.742708   345A      3.744655  
     346A      3.751998   347A      3.765700   348A      3.770044  
     349A      3.780858   350A      3.798965   351A      3.808151  
     352A      3.808500   353A      3.830533   354A      3.867497  
     355A      3.874812   356A      3.878649   357A      3.881236  
     358A      3.900775   359A      3.907883   360A      3.920030  
     361A      3.931904   362A      3.949718   363A      3.957478  
     364A      3.974427   365A      3.988404   366A      3.994707  
     367A      3.996654   368A      3.998044   369A      4.013248  
     370A      4.029801   371A      4.031824   372A      4.058830  
     373A      4.070340   374A      4.071412   375A      4.084549  
     376A      4.110727   377A      4.162864   378A      4.177797  
     379A      4.189216   380A      4.198397   381A      4.204007  
     382A      4.228290   383A      4.239460   384A      4.260530  
     385A      4.262999   386A      4.265990   387A      4.287403  
     388A      4.306703   389A      4.320565   390A      4.332660  
     391A      4.341366   392A      4.357792   393A      4.364919  
     394A      4.405523   395A      4.419145   396A      4.453788  
     397A      4.475126   398A      4.484100   399A      4.533018  
     400A      4.536096   401A      4.552292   402A      4.567641  
     403A      4.615939   404A      4.626915   405A      4.663622  
     406A      4.670234   407A      4.676773   408A      4.692493  
     409A      4.711028   410A      4.725005   411A      4.741652  
     412A      4.746118   413A      4.756993   414A      4.768483  
     415A      4.805104   416A      4.829648   417A      4.844493  
     418A      4.852258   419A      4.867428   420A      4.876007  
     421A      4.899126   422A      4.900232   423A      4.914113  
     424A      4.922122   425A      4.947964   426A      4.953534  
     427A      4.971109   428A      5.006383   429A      5.033815  
     430A      5.050225   431A      5.097123   432A      5.114766  
     433A      5.119231   434A      5.145280   435A      5.179466  
     436A      5.191218   437A      5.193477   438A      5.212172  
     439A      5.230110   440A      5.238034   441A      5.240435  
     442A      5.270800   443A      5.292793   444A      5.293758  
     445A      5.303792   446A      5.325860   447A      5.368553  
     448A      5.369669   449A      5.380955   450A      5.411690  
     451A      5.413473   452A      5.431943   453A      5.454265  
     454A      5.456746   455A      5.462304   456A      5.507146  
     457A      5.513860   458A      5.517286   459A      5.570826  
     460A      5.584984   461A      5.616210   462A      5.636622  
     463A      5.675785   464A      5.684619   465A      5.707099  
     466A      5.712663   467A      5.732881   468A      5.776201  
     469A      5.792715   470A      5.816196   471A      5.822630  
     472A      5.824479   473A      5.876493   474A      5.893458  
     475A      5.947233   476A      5.982034   477A      5.994221  
     478A      6.025251   479A      6.091223   480A      6.112505  
     481A      6.146417   482A      6.188652   483A      6.211375  
     484A      6.217995   485A      6.237902   486A      6.261806  
     487A      6.300006   488A      6.308213   489A      6.341144  
     490A      6.373194   491A      6.437383   492A      6.457903  
     493A      6.588121   494A      6.639823   495A      6.742085  
     496A      6.796635   497A      6.828001   498A      6.857810  
     499A      6.864566   500A      6.908397   501A      7.068947  
     502A     17.807105   503A     18.194446   504A     18.210910  
     505A     18.550600   506A     19.263355  

    Final Occupation by Irrep:
              A 
    DOCC [    21 ]

  Energy converged.

  @DF-RHF Final Energy:  -196.40430514624225

   => Energetics <=

    Nuclear Repulsion Energy =            186.2653606517717719
    One-Electron Energy =                -632.3786310684465661
    Two-Electron Energy =                 249.7089652704325999
    DFT Exchange-Correlation Energy =       0.0000000000000000
    Empirical Dispersion Energy =           0.0000000000000000
    PCM Polarization Energy =               0.0000000000000000
    EFP Energy =                            0.0000000000000000
    Total Energy =                       -196.4043051462422227


  Saving occupied orbitals to File 180.

*** tstop() called on wr38 at Wed Sep 21 11:03:17 2016
Module time:
	user time   =     216.19 seconds =       3.60 minutes
	system time =       4.32 seconds =       0.07 minutes
	total time  =         23 seconds =       0.38 minutes
Total time:
	user time   =     216.19 seconds =       3.60 minutes
	system time =       4.32 seconds =       0.07 minutes
	total time  =         23 seconds =       0.38 minutes


Properties will be evaluated at   0.000000,   0.000000,   0.000000 Bohr

Properties computed using the SCF density matrix

  Nuclear Dipole Moment: (a.u.)
     X:     0.0000      Y:     0.5586      Z:    -0.0523

  Electronic Dipole Moment: (a.u.)
     X:    -0.0001      Y:    -0.5920      Z:     0.0556

  Dipole Moment: (a.u.)
     X:    -0.0001      Y:    -0.0333      Z:     0.0033     Total:     0.0335

  Dipole Moment: (Debye)
     X:    -0.0003      Y:    -0.0847      Z:     0.0084     Total:     0.0851


  //>>>>>>>>>>>>>>>>>>>>>>>>>>>>>>>>>>>//
  //               DFMP2               //
  //<<<<<<<<<<<<<<<<<<<<<<<<<<<<<<<<<<<//


*** tstart() called on wr38
*** at Wed Sep 21 11:03:17 2016


*** tstop() called on wr38 at Wed Sep 21 11:03:18 2016
Module time:
	user time   =       3.43 seconds =       0.06 minutes
	system time =       0.07 seconds =       0.00 minutes
	total time  =          1 seconds =       0.02 minutes
Total time:
	user time   =     219.67 seconds =       3.66 minutes
	system time =       4.39 seconds =       0.07 minutes
	total time  =         24 seconds =       0.40 minutes
	 --------------------------------------------------------
	                          DF-MP2                         
	      2nd-Order Density-Fitted Moller-Plesset Theory     
	              RMP2 Wavefunction,  12 Threads             
	                                                         
	        Rob Parrish, Justin Turney, Andy Simmonett,      
	           Ed Hohenstein, and C. David Sherrill          
	 --------------------------------------------------------

   => Auxiliary Basis Set <=

  Basis Set: 
    Number of shells: 308
    Number of basis function: 1082
    Number of Cartesian functions: 1340
    Spherical Harmonics?: true
    Max angular momentum: 4

	 --------------------------------------------------------
	                 NBF =   506, NAUX =  1082
	 --------------------------------------------------------
	   CLASS    FOCC     OCC    AOCC    AVIR     VIR    FVIR
	   PAIRS       5      21      16     485     485       0
	 --------------------------------------------------------

DGAS Warning! /src/lib/libfock/apps.cc:80 is not currently checking restricted

         ------------------------------------------------------------
                                     CPHF                           
                                  Rob Parrish                       
         ------------------------------------------------------------

  ==> Geometry <==

    Molecular point group: c1
    Full point group: C1

    Geometry (in Angstrom), charge = 0, multiplicity = 1:

       Center              X                  Y                   Z               Mass       
    ------------   -----------------  -----------------  -----------------  -----------------
           C         -2.523000000000     0.338990793686     0.011936615675    12.000000000000
           H         -2.568000000000     0.896990793686    -0.922063384325     1.007825032070
           H         -2.538000000000     1.057990793686     0.828936615675     1.007825032070
           H         -3.422000000000    -0.268009206314     0.082936615675     1.007825032070
           C          2.524000000000     0.321990793686    -0.073063384325    12.000000000000
           H          3.421000000000    -0.291009206314    -0.032063384325     1.007825032070
           H          2.541000000000     0.879990793686    -1.007063384325     1.007825032070
           H          2.571000000000     1.040990793686     0.742936615675     1.007825032070
           C          1.265000000000    -0.518009206314     0.025936615675    12.000000000000
           H          1.274000000000    -1.088009206314     0.955936615675     1.007825032070
           H          1.245000000000    -1.249009206314    -0.784063384325     1.007825032070
           C          0.001000000000     0.316990793686    -0.029063384325    12.000000000000
           H          0.017000000000     1.047990793686     0.781936615675     1.007825032070
           H         -0.013000000000     0.887990793686    -0.960063384325     1.007825032070
           C         -1.267000000000    -0.510009206314     0.068936615675    12.000000000000
           H         -1.279000000000    -1.240009206314    -0.742063384325     1.007825032070
           H         -1.249000000000    -1.080009206314     0.998936615675     1.007825032070

  Nuclear repulsion =  186.265360651771772
  Reference energy  = -196.404305146242251

  ==> Basis Set <==

  Basis Set: AUG-CC-PVTZ
    Number of shells: 178
    Number of basis function: 506
    Number of Cartesian functions: 575
    Spherical Harmonics?: true
    Max angular momentum: 3

  ==> CGRSolver (by Rob Parrish) <==

   Number of roots    =         1
   Preconditioning    =    JACOBI
   Convergence cutoff =     1E-06
   Maximum iterations =       100

  ==> CPHFRHamiltonian (by Rob Parrish) <== 

  ==> DFJK: Density-Fitted J/K Matrices <==

    J tasked:                  Yes
    K tasked:                  Yes
    wK tasked:                  No
    OpenMP threads:             12
    Integrals threads:          12
    Memory (MB):             42915
    Algorithm:                Core
    Integral Cache:           NONE
    Schwarz Cutoff:          1E-12
    Fitting Condition:       1E-12

   => Auxiliary Basis Set <=

  Basis Set: 
    Number of shells: 318
    Number of basis function: 1072
    Number of Cartesian functions: 1315
    Spherical Harmonics?: true
    Max angular momentum: 4

  ==> CPHF Iterations <==

  => Iterations <=

             Iter  Converged  Remaining    Residual
  CGR           1          0          1   8.945E-02
  CGR           2          0          1   1.241E-02
  CGR           3          0          1   3.110E-03
  CGR           4          0          1   8.040E-04
  CGR           5          0          1   1.565E-04
  CGR           6          0          1   3.183E-05
  CGR           7          0          1   6.022E-06
  CGR           8          0          1   1.578E-06
  CGR           9          1          0   4.156E-07

    CGRSolver converged.

  ==> DFCorrGrad: Density-Fitted Correlated Gradients <==

    OpenMP threads:             12
    Integrals threads:          12
    Memory (MB):             42915
    Schwarz Cutoff:          0E+00
    Fitting Condition:       1E-12

   => Auxiliary Basis Set <=

  Basis Set: 
    Number of shells: 318
    Number of basis function: 1072
    Number of Cartesian functions: 1315
    Spherical Harmonics?: true
    Max angular momentum: 4

	-----------------------------------------------------------
	 ==================> DF-MP2 Energies <==================== 
	-----------------------------------------------------------
	 Reference Energy          =    -196.4043051462422511 [Eh]
	 Singles Energy            =      -0.0000000000000000 [Eh]
	 Same-Spin Energy          =      -0.1948436629729672 [Eh]
	 Opposite-Spin Energy      =      -0.7107692640115394 [Eh]
	 Correlation Energy        =      -0.9056129269845066 [Eh]
	 Total Energy              =    -197.3099180732267541 [Eh]
	-----------------------------------------------------------
	 ================> DF-SCS-MP2 Energies <================== 
	-----------------------------------------------------------
	 SCS Same-Spin Scale       =       0.3333333333333333 [-]
	 SCS Opposite-Spin Scale   =       1.2000000000000000 [-]
	 SCS Same-Spin Energy      =      -0.0649478876576557 [Eh]
	 SCS Opposite-Spin Energy  =      -0.8529231168138472 [Eh]
	 SCS Correlation Energy    =      -0.9178710044715029 [Eh]
	 SCS Total Energy          =    -197.3221761507137444 [Eh]
	-----------------------------------------------------------


  -Total Gradient:
     Atom            X                  Y                   Z
    ------   -----------------  -----------------  -----------------
       1        0.001136191860    -0.001205305209     0.000295420276
       2        0.000250149740    -0.000763465646     0.000957829599
       3        0.000284901253    -0.001149454416    -0.001047598689
       4        0.001550612799     0.000826647035    -0.000123525114
       5       -0.001315039167    -0.001127999173    -0.000155856489
       6       -0.001443127581     0.000762589427    -0.000047221277
       7       -0.000289840240    -0.000985485391     0.001456190943
       8       -0.000343745299    -0.001047526892    -0.001007793960
       9       -0.000162898138     0.002625575279    -0.000062118923
      10       -0.000143960386     0.001098771451    -0.001351790377
      11        0.000008626808     0.001100142187     0.000933859239
      12        0.000461275630    -0.001631800535     0.000345145808
      13       -0.000033830020    -0.001619623102    -0.001319607253
      14        0.000047040977    -0.001250476193     0.001428455435
      15       -0.000100873024     0.002096598587     0.000075380329
      16        0.000045426449     0.001197604663     0.000857005880
      17        0.000049088338     0.001073207927    -0.001233775426


			-----------------------------------------
			 OPTKING 2.0: for geometry optimizations 
			  - R.A. King,  Bethel University        
			-----------------------------------------

	Internal coordinates to be generated automatically.
	Detected frag 1 with atoms:  1 2 3 4 5 6 7 8 9 10 11 12 13 14 15 16 17
	---Fragment 1 Bond Connectivity---
	 1 : 2 3 4 15
	 2 : 1
	 3 : 1
	 4 : 1
	 5 : 6 7 8 9
	 6 : 5
	 7 : 5
	 8 : 5
	 9 : 5 10 11 12
	 10 : 9
	 11 : 9
	 12 : 9 13 14 15
	 13 : 12
	 14 : 12
	 15 : 1 12 16 17
	 16 : 15
	 17 : 15

	---Fragment 1 Geometry and Gradient---
	 C          -4.7677790333        0.6405997616        0.0225569346
	 H          -4.8528167093        1.6950669438       -1.7424472735
	 H          -4.7961249253        1.9993128512        1.5664631851
	 H          -6.4666428267       -0.5064640010        0.1567274900
	 C           4.7696687594        0.6084744174       -0.1380697867
	 H           6.4647531006       -0.5499277021       -0.0605910153
	 H           4.8017941037        1.6629415995       -1.9030739948
	 H           4.8584858876        1.9671875069        1.4039467377
	 C           2.3905035581       -0.9788955342        0.0490131004
	 H           2.4075110933       -2.0560394300        1.8064584040
	 H           2.3527090354       -2.3602853374       -1.4816650672
	 C           0.0018897261        0.5990257867       -0.0549218369
	 H           0.0321253443        1.9804155899        1.4776460569
	 H          -0.0245664397        1.6780594086       -1.8142568666
	 C          -2.3942830104       -0.9637777252        0.1302713242
	 H          -2.4169597240       -2.3432778022       -1.4022965696
	 H          -2.3602679400       -2.0409216209        1.8877166277
	             0.0011361919       -0.0012053052        0.0002954203
	             0.0002501497       -0.0007634656        0.0009578296
	             0.0002849013       -0.0011494544       -0.0010475987
	             0.0015506128        0.0008266470       -0.0001235251
	            -0.0013150392       -0.0011279992       -0.0001558565
	            -0.0014431276        0.0007625894       -0.0000472213
	            -0.0002898402       -0.0009854854        0.0014561909
	            -0.0003437453       -0.0010475269       -0.0010077940
	            -0.0001628981        0.0026255753       -0.0000621189
	            -0.0001439604        0.0010987715       -0.0013517904
	             0.0000086268        0.0011001422        0.0009338592
	             0.0004612756       -0.0016318005        0.0003451458
	            -0.0000338300       -0.0016196231       -0.0013196073
	             0.0000470410       -0.0012504762        0.0014284554
	            -0.0001008730        0.0020965986        0.0000753803
	             0.0000454264        0.0011976047        0.0008570059
	             0.0000490883        0.0010732079       -0.0012337754

	Previous optimization step data not found.  Starting new optimization.

	---Fragment 1 Intrafragment Coordinates---
	 - Coordinate -           - BOHR/RAD -       - ANG/DEG -
	 R(1,2)           =         2.057759	       1.088919
	 R(1,3)           =         2.056830	       1.088428
	 R(1,4)           =         2.054238	       1.087056
	 R(1,15)          =         2.866900	       1.517098
	 R(5,6)           =         2.054558	       1.087225
	 R(5,7)           =         2.056252	       1.088122
	 R(5,8)           =         2.057135	       1.088589
	 R(5,9)           =         2.866212	       1.516734
	 R(9,10)          =         2.061345	       1.090817
	 R(9,11)          =         2.062193	       1.091266
	 R(9,12)          =         2.864632	       1.515898
	 R(12,13)         =         2.063472	       1.091942
	 R(12,14)         =         2.064043	       1.092244
	 R(12,15)         =         2.866757	       1.517022
	 R(15,16)         =         2.062110	       1.091222
	 R(15,17)         =         2.061555	       1.090928
	 B(1,15,12)       =         1.965455	     112.612250
	 B(1,15,16)       =         1.914891	     109.715186
	 B(1,15,17)       =         1.915679	     109.760327
	 B(2,1,3)         =         1.880480	     107.743545
	 B(2,1,4)         =         1.883869	     107.937745
	 B(2,1,15)        =         1.931795	     110.683710
	 B(3,1,4)         =         1.884349	     107.965259
	 B(3,1,15)        =         1.931449	     110.663881
	 B(4,1,15)        =         1.949519	     111.699198
	 B(5,9,10)        =         1.915796	     109.767036
	 B(5,9,11)        =         1.915322	     109.739842
	 B(5,9,12)        =         1.965690	     112.625752
	 B(6,5,7)         =         1.884530	     107.975635
	 B(6,5,8)         =         1.884420	     107.969336
	 B(6,5,9)         =         1.949937	     111.723183
	 B(7,5,8)         =         1.879729	     107.700536
	 B(7,5,9)         =         1.931572	     110.670951
	 B(8,5,9)         =         1.931255	     110.652773
	 B(9,12,13)       =         1.906662	     109.243694
	 B(9,12,14)       =         1.906649	     109.242926
	 B(9,12,15)       =         1.976133	     113.224077
	 B(10,9,11)       =         1.857660	     106.436076
	 B(10,9,12)       =         1.902490	     109.004669
	 B(11,9,12)       =         1.903678	     109.072720
	 B(12,15,16)      =         1.902728	     109.018300
	 B(12,15,17)      =         1.902986	     109.033066
	 B(13,12,14)      =         1.858013	     106.456315
	 B(13,12,15)      =         1.906270	     109.221211
	 B(14,12,15)      =         1.906401	     109.228721
	 B(16,15,17)      =         1.858987	     106.512123
	 D(1,15,12,9)     =        -3.141185	    -179.976636
	 D(1,15,12,13)    =         1.013279	      58.056596
	 D(1,15,12,14)    =        -1.012386	     -58.005420
	 D(2,1,15,12)     =         1.041556	      59.676756
	 D(2,1,15,16)     =        -1.081068	     -61.940659
	 D(2,1,15,17)     =        -3.118116	    -178.654892
	 D(3,1,15,12)     =        -1.041951	     -59.699409
	 D(3,1,15,16)     =         3.118610	     178.683176
	 D(3,1,15,17)     =         1.081562	      61.968943
	 D(4,1,15,12)     =         3.141209	     179.977992
	 D(4,1,15,16)     =         1.018584	      58.360577
	 D(4,1,15,17)     =        -1.018463	     -58.353656
	 D(5,9,12,13)     =        -1.013061	     -58.044143
	 D(5,9,12,14)     =         1.012961	      58.038387
	 D(5,9,12,15)     =        -3.141564	    -179.998340
	 D(6,5,9,10)      =         1.018382	      58.349003
	 D(6,5,9,11)      =        -1.017376	     -58.291361
	 D(6,5,9,12)      =         3.141505	     179.994986
	 D(7,5,9,10)      =         3.119002	     178.705655
	 D(7,5,9,11)      =         1.083244	      62.065290
	 D(7,5,9,12)      =        -1.041060	     -59.648363
	 D(8,5,9,10)      =        -1.081882	     -61.987255
	 D(8,5,9,11)      =        -3.117640	    -178.627620
	 D(8,5,9,12)      =         1.041241	      59.658728
	 D(9,12,15,16)    =        -1.011669	     -57.964370
	 D(9,12,15,17)    =         1.011300	      57.943215
	 D(10,9,12,13)    =         1.117595	      64.033464
	 D(10,9,12,14)    =        -3.139568	    -179.884006
	 D(10,9,12,15)    =        -1.010907	     -57.920733
	 D(11,9,12,13)    =         3.139231	     179.864673
	 D(11,9,12,14)    =        -1.117932	     -64.052797
	 D(11,9,12,15)    =         1.010728	      57.910477
	 D(13,12,15,16)   =        -3.140391	    -179.931138
	 D(13,12,15,17)   =        -1.117422	     -64.023553
	 D(14,12,15,16)   =         1.117130	      64.006846
	 D(14,12,15,17)   =         3.140099	     179.914431

	Current energy   :      -197.3099180732

	Generating empirical Hessian (Schlegel '84) for each fragment.
	Taking RFO optimization step.
	Going to follow RFO solution 1.
	Using RFO vector 1.
	Norm of target step-size    0.03355
	Projected energy change by RFO approximation:        -0.0003095724

	Back-transformation to cartesian coordinates...
	Successfully converged to displaced geometry.

	--- Internal Coordinate Step in ANG or DEG, aJ/ANG or AJ/DEG ---
	 ---------------------------------------------------------------------------
	   Coordinate                Previous        Force       Change         New 
	   ----------                --------       ------       ------       ------
	    1 R(1,2)          =      1.088919     0.010077     0.001851     1.090770
	    2 R(1,3)          =      1.088428     0.012767     0.002341     1.090769
	    3 R(1,4)          =      1.087056     0.014434     0.002635     1.089691
	    4 R(1,15)         =      1.517098     0.032567     0.006818     1.523916
	    5 R(5,6)          =      1.087225     0.013366     0.002441     1.089667
	    6 R(5,7)          =      1.088122     0.014499     0.002656     1.090778
	    7 R(5,8)          =      1.088589     0.012046     0.002210     1.090799
	    8 R(5,9)          =      1.516734     0.034271     0.007166     1.523900
	    9 R(9,10)         =      1.090817     0.014235     0.002631     1.093448
	   10 R(9,11)         =      1.091266     0.011784     0.002181     1.093447
	   11 R(9,12)         =      1.515898     0.036429     0.007598     1.523495
	   12 R(12,13)        =      1.091942     0.017012     0.003156     1.095098
	   13 R(12,14)        =      1.092244     0.015422     0.002864     1.095108
	   14 R(12,15)        =      1.517022     0.031583     0.006610     1.523633
	   15 R(15,16)        =      1.091222     0.011852     0.002194     1.093415
	   16 R(15,17)        =      1.090928     0.013278     0.002455     1.093383
	   17 B(1,15,12)      =    112.612250    -0.000013    -0.006862   112.605389
	   18 B(1,15,16)      =    109.715186     0.000006     0.045906   109.761092
	   19 B(1,15,17)      =    109.760327     0.000002    -0.006085   109.754242
	   20 B(2,1,3)        =    107.743545    -0.000024    -0.110938   107.632607
	   21 B(2,1,4)        =    107.937745    -0.000016    -0.073446   107.864299
	   22 B(2,1,15)       =    110.683710     0.000019     0.090687   110.774397
	   23 B(3,1,4)        =    107.965259    -0.000019    -0.091361   107.873898
	   24 B(3,1,15)       =    110.663881     0.000026     0.123848   110.787729
	   25 B(4,1,15)       =    111.699198     0.000010     0.046476   111.745673
	   26 B(5,9,10)       =    109.767036    -0.000001    -0.010492   109.756544
	   27 B(5,9,11)       =    109.739842     0.000005     0.012264   109.752106
	   28 B(5,9,12)       =    112.625752    -0.000011    -0.012346   112.613406
	   29 B(6,5,7)        =    107.975635    -0.000019    -0.103171   107.872464
	   30 B(6,5,8)        =    107.969336    -0.000020    -0.103639   107.865698
	   31 B(6,5,9)        =    111.723183     0.000009     0.026813   111.749996
	   32 B(7,5,8)        =    107.700536    -0.000021    -0.074227   107.626309
	   33 B(7,5,9)        =    110.670951     0.000022     0.110691   110.781642
	   34 B(8,5,9)        =    110.652773     0.000026     0.129293   110.782066
	   35 B(9,12,13)      =    109.243694    -0.000000     0.023017   109.266712
	   36 B(9,12,14)      =    109.242926     0.000002     0.038727   109.281653
	   37 B(9,12,15)      =    113.224077     0.000008     0.074681   113.298758
	   38 B(10,9,11)      =    106.436076    -0.000010    -0.119480   106.316596
	   39 B(10,9,12)      =    109.004669     0.000013     0.098634   109.103302
	   40 B(11,9,12)      =    109.072720     0.000004     0.025838   109.098557
	   41 B(12,15,16)     =    109.018300     0.000008     0.072613   109.090913
	   42 B(12,15,17)     =    109.033066     0.000010     0.054616   109.087683
	   43 B(13,12,14)     =    106.456315    -0.000012    -0.199081   106.257234
	   44 B(13,12,15)     =    109.221211     0.000001     0.028519   109.249730
	   45 B(14,12,15)     =    109.228721    -0.000001     0.016240   109.244961
	   46 B(16,15,17)     =    106.512123    -0.000014    -0.169084   106.343039
	   47 D(1,15,12,9)    =   -179.976636    -0.000000    -0.044198  -180.020834
	   48 D(1,15,12,13)   =     58.056596    -0.000002    -0.145232    57.911364
	   49 D(1,15,12,14)   =    -58.005420     0.000001     0.068116   -57.937304
	   50 D(2,1,15,12)    =     59.676756     0.000000     0.026649    59.703405
	   51 D(2,1,15,16)    =    -61.940659    -0.000001    -0.094140   -62.034799
	   52 D(2,1,15,17)    =   -178.654892     0.000001     0.087494  -178.567398
	   53 D(3,1,15,12)    =    -59.699409     0.000000     0.026443   -59.672966
	   54 D(3,1,15,16)    =    178.683176    -0.000001    -0.094346   178.588830
	   55 D(3,1,15,17)    =     61.968943     0.000001     0.087288    62.056232
	   56 D(4,1,15,12)    =    179.977992     0.000000     0.026575   180.004567
	   57 D(4,1,15,16)    =     58.360577    -0.000001    -0.094214    58.266363
	   58 D(4,1,15,17)    =    -58.353656     0.000001     0.087421   -58.266235
	   59 D(5,9,12,13)    =    -58.044143     0.000002     0.100864   -57.943280
	   60 D(5,9,12,14)    =     58.038387    -0.000001    -0.103064    57.935323
	   61 D(5,9,12,15)    =   -179.998340     0.000000    -0.003271  -180.001610
	   62 D(6,5,9,10)     =     58.349003    -0.000001    -0.100630    58.248374
	   63 D(6,5,9,11)     =    -58.291361     0.000001     0.043035   -58.248327
	   64 D(6,5,9,12)     =    179.994986     0.000001     0.009652   180.004638
	   65 D(7,5,9,10)     =    178.705655    -0.000002    -0.137890   178.567765
	   66 D(7,5,9,11)     =     62.065290     0.000000     0.005774    62.071064
	   67 D(7,5,9,12)     =    -59.648363    -0.000000    -0.027608   -59.675971
	   68 D(8,5,9,10)     =    -61.987255    -0.000001    -0.075462   -62.062717
	   69 D(8,5,9,11)     =   -178.627620     0.000001     0.068202  -178.559418
	   70 D(8,5,9,12)     =     59.658728     0.000001     0.034820    59.693547
	   71 D(9,12,15,16)   =    -57.964370     0.000001     0.061042   -57.903327
	   72 D(9,12,15,17)   =     57.943215    -0.000001    -0.070543    57.872673
	   73 D(10,9,12,13)   =     64.033464     0.000002     0.149128    64.182592
	   74 D(10,9,12,14)   =   -179.884006    -0.000001    -0.054799  -179.938806
	   75 D(10,9,12,15)   =    -57.920733     0.000000     0.044994   -57.875738
	   76 D(11,9,12,13)   =    179.864673     0.000001     0.075195   179.939868
	   77 D(11,9,12,14)   =    -64.052797    -0.000002    -0.128733   -64.181530
	   78 D(11,9,12,15)   =     57.910477    -0.000000    -0.028939    57.881537
	   79 D(13,12,15,16)  =   -179.931138    -0.000001    -0.039991  -179.971129
	   80 D(13,12,15,17)  =    -64.023553    -0.000002    -0.171576   -64.195129
	   81 D(14,12,15,16)  =     64.006846     0.000003     0.173356    64.180203
	   82 D(14,12,15,17)  =    179.914431     0.000001     0.041771   179.956203
	 ---------------------------------------------------------------------------

  ==> Convergence Check <==

  Measures of convergence in internal coordinates in au.
  Criteria marked as inactive (o), active & met (*), and active & unmet ( ).
  --------------------------------------------------------------------------------------------- ~
   Step     Total Energy     Delta E     MAX Force     RMS Force      MAX Disp      RMS Disp    ~
  --------------------------------------------------------------------------------------------- ~
    Convergence Criteria             o    2.00e-06 *    1.00e-06 *    6.00e-06 *    4.00e-06 *  ~
  --------------------------------------------------------------------------------------------- ~
      1    -197.30991807   -1.97e+02 o    4.42e-03      1.11e-03      1.44e-02      3.70e-03    ~
  ---------------------------------------------------------------------------------------------

	Writing optimization data to binary file.
	Structure for next step:
	Cartesian Geometry (in Angstrom)
	    C    -2.5344639948   0.3411733661   0.0120381559
	    H    -2.5808996841   0.9006917007  -0.9231421858
	    H    -2.5506218565   1.0627013752   0.8299091056
	    H    -3.4366510217  -0.2657562239   0.0836022924
	    C     2.5356841770   0.3234622758  -0.0733143379
	    H     3.4354752774  -0.2897637533  -0.0320452773
	    H     2.5544736524   0.8828732701  -1.0095314133
	    H     2.5845448935   1.0447664258   0.7434939219
	    C     1.2714074155  -0.5214848909   0.0263912704
	    H     1.2818800737  -1.0938320374   0.9580227154
	    H     1.2521429101  -1.2548101511  -0.7844658694
	    C     0.0005807763   0.3169179305  -0.0294509807
	    H     0.0165206645   1.0517631221   0.7823303104
	    H    -0.0134312108   0.8906686830  -0.9621225867
	    C    -1.2735545715  -0.5127503723   0.0689705146
	    H    -1.2865542133  -1.2457678533  -0.7422468600
	    H    -1.2565332879  -1.0850093745   1.0004836913
			--------------------------
			 OPTKING Finished Execution 
			--------------------------

    Structure for next step:
    Molecular point group: c1
    Full point group: C1

    Geometry (in Angstrom), charge = 0, multiplicity = 1:

    C           -2.534411209944     0.341575225769     0.012045543997
    H           -2.580846899257     0.901093560295    -0.923134797699
    H           -2.550569071719     1.063103234813     0.829916493690
    H           -3.436598236844    -0.265354364238     0.083609680499
    C            2.535736961766     0.323864135434    -0.073306949802
    H            3.435528062245    -0.289361893667    -0.032037889160
    H            2.554526437255     0.883275129713    -1.009524025205
    H            2.584597678289     1.045168285413     0.743501310066
    C            1.271460200355    -0.521083031268     0.026398658480
    H            1.281932858557    -1.093430177750     0.958030103510
    H            1.252195694911    -1.254408291459    -0.784458481291
    C            0.000633561090     0.317319790078    -0.029443592587
    H            0.016573449333     1.052164981708     0.782337698509
    H           -0.013378426031     0.891070542630    -0.962115198618
    C           -1.273501786662    -0.512348512717     0.068977902737
    H           -1.286501428454    -1.245365993705    -0.742239471906
    H           -1.256480503070    -1.084607514835     1.000491079378

gradient() will perform analytic gradient computation.
    SCF Algorithm Type (re)set to DF.

*** tstart() called on wr38
*** at Wed Sep 21 11:04:28 2016


         ---------------------------------------------------------
                                   SCF
            by Justin Turney, Rob Parrish, and Andy Simmonett
                              RHF Reference
                       12 Threads,  60000 MiB Core
         ---------------------------------------------------------

  ==> Geometry <==

    Molecular point group: c1
    Full point group: C1

    Geometry (in Angstrom), charge = 0, multiplicity = 1:

       Center              X                  Y                   Z               Mass       
    ------------   -----------------  -----------------  -----------------  -----------------
           C         -2.534411209944     0.341575225769     0.012045543997    12.000000000000
           H         -2.580846899257     0.901093560295    -0.923134797699     1.007825032070
           H         -2.550569071719     1.063103234813     0.829916493690     1.007825032070
           H         -3.436598236844    -0.265354364238     0.083609680499     1.007825032070
           C          2.535736961766     0.323864135434    -0.073306949802    12.000000000000
           H          3.435528062245    -0.289361893667    -0.032037889160     1.007825032070
           H          2.554526437255     0.883275129713    -1.009524025205     1.007825032070
           H          2.584597678289     1.045168285413     0.743501310066     1.007825032070
           C          1.271460200355    -0.521083031268     0.026398658480    12.000000000000
           H          1.281932858557    -1.093430177750     0.958030103510     1.007825032070
           H          1.252195694911    -1.254408291459    -0.784458481291     1.007825032070
           C          0.000633561090     0.317319790078    -0.029443592587    12.000000000000
           H          0.016573449333     1.052164981708     0.782337698509     1.007825032070
           H         -0.013378426031     0.891070542630    -0.962115198618     1.007825032070
           C         -1.273501786662    -0.512348512717     0.068977902737    12.000000000000
           H         -1.286501428454    -1.245365993705    -0.742239471906     1.007825032070
           H         -1.256480503070    -1.084607514835     1.000491079378     1.007825032070

  Running in c1 symmetry.

  Rotational constants: A =      0.56940  B =      0.06539  C =      0.06200 [cm^-1]
  Rotational constants: A =  17070.31297  B =   1960.33828  C =   1858.76462 [MHz]
  Nuclear repulsion =  185.508756620445183

  Charge       = 0
  Multiplicity = 1
  Electrons    = 42
  Nalpha       = 21
  Nbeta        = 21

  ==> Algorithm <==

  SCF Algorithm Type is DF.
  DIIS enabled.
  MOM disabled.
  Fractional occupation disabled.
  Guess Type is READ.
  Energy threshold   = 1.00e-10
  Density threshold  = 1.00e-10
  Integral threshold = 0.00e+00

  ==> Primary Basis <==

  Basis Set: AUG-CC-PVTZ
    Number of shells: 178
    Number of basis function: 506
    Number of Cartesian functions: 575
    Spherical Harmonics?: true
    Max angular momentum: 3

  ==> Pre-Iterations <==

   -------------------------------------------------------
    Irrep   Nso     Nmo     Nalpha   Nbeta   Ndocc  Nsocc
   -------------------------------------------------------
     A        506     506       0       0       0       0
   -------------------------------------------------------
    Total     506     506      21      21      21       0
   -------------------------------------------------------

  ==> Integral Setup <==

  ==> DFJK: Density-Fitted J/K Matrices <==

    J tasked:                  Yes
    K tasked:                  Yes
    wK tasked:                  No
    OpenMP threads:             12
    Integrals threads:          12
    Memory (MB):             42915
    Algorithm:                Core
    Integral Cache:           NONE
    Schwarz Cutoff:          1E-12
    Fitting Condition:       1E-12

   => Auxiliary Basis Set <=

  Basis Set: 
    Number of shells: 318
    Number of basis function: 1072
    Number of Cartesian functions: 1315
    Spherical Harmonics?: true
    Max angular momentum: 4

  Minimum eigenvalue in the overlap matrix is 5.7892862204E-06.
  Using Symmetric Orthogonalization.
  SCF Guess: Reading in previously saved MOs, projecting if necessary.

  Using orbitals from previous SCF, no projection.
  Recomputing DOCC and SOCC from number of alpha and beta electrons from previous calculation.
              A 
    DOCC [    21 ]

  ==> Iterations <==

                           Total Energy        Delta E     RMS |[F,P]|

   @DF-RHF iter   0:  -196.37533074577510   -1.96375e+02   5.60785e-05 
   @DF-RHF iter   1:  -196.40428776439018   -2.89570e-02   1.39494e-05 
   @DF-RHF iter   2:  -196.40431357045145   -2.58061e-05   7.32016e-06 DIIS
   @DF-RHF iter   3:  -196.40432014563351   -6.57518e-06   6.14373e-07 DIIS
   @DF-RHF iter   4:  -196.40432023140824   -8.57747e-08   1.74399e-07 DIIS
   @DF-RHF iter   5:  -196.40432023712867   -5.72044e-09   5.58252e-08 DIIS
   @DF-RHF iter   6:  -196.40432023777828   -6.49607e-10   9.99953e-09 DIIS
   @DF-RHF iter   7:  -196.40432023781125   -3.29692e-11   2.04588e-09 DIIS
   @DF-RHF iter   8:  -196.40432023781233   -1.08002e-12   4.48060e-10 DIIS
   @DF-RHF iter   9:  -196.40432023781244   -1.13687e-13   1.13790e-10 DIIS
   @DF-RHF iter  10:  -196.40432023781261   -1.70530e-13   3.63004e-11 DIIS

  ==> Post-Iterations <==

    Orbital Energies (a.u.)
    -----------------------

    Doubly Occupied:                                                      

       1A    -11.213042     2A    -11.212968     3A    -11.210623  
       4A    -11.207482     5A    -11.207481     6A     -1.080705  
       7A     -1.014940     8A     -0.918691     9A     -0.819629  
      10A     -0.784599    11A     -0.646910    12A     -0.597993  
      13A     -0.592549    14A     -0.553562    15A     -0.547244  
      16A     -0.525494    17A     -0.494292    18A     -0.475763  
      19A     -0.461511    20A     -0.458969    21A     -0.446786  

    Virtual:                                                              

      22A      0.031622    23A      0.034300    24A      0.037961  
      25A      0.039530    26A      0.053422    27A      0.054236  
      28A      0.056381    29A      0.057969    30A      0.078302  
      31A      0.081304    32A      0.083178    33A      0.084062  
      34A      0.092532    35A      0.115997    36A      0.116995  
      37A      0.128839    38A      0.136696    39A      0.138237  
      40A      0.139423    41A      0.145117    42A      0.154684  
      43A      0.155503    44A      0.155584    45A      0.162481  
      46A      0.169400    47A      0.171197    48A      0.176884  
      49A      0.201370    50A      0.204568    51A      0.214564  
      52A      0.222239    53A      0.225820    54A      0.229377  
      55A      0.246664    56A      0.248412    57A      0.262969  
      58A      0.270372    59A      0.271183    60A      0.277182  
      61A      0.295703    62A      0.298612    63A      0.309485  
      64A      0.312092    65A      0.313781    66A      0.334849  
      67A      0.346330    68A      0.349480    69A      0.354531  
      70A      0.357023    71A      0.361110    72A      0.371425  
      73A      0.374494    74A      0.374760    75A      0.378654  
      76A      0.383791    77A      0.384641    78A      0.387561  
      79A      0.388279    80A      0.402817    81A      0.404705  
      82A      0.409123    83A      0.412359    84A      0.422513  
      85A      0.425806    86A      0.433715    87A      0.434237  
      88A      0.438875    89A      0.451326    90A      0.452606  
      91A      0.454917    92A      0.457325    93A      0.465590  
      94A      0.471631    95A      0.477513    96A      0.479206  
      97A      0.479766    98A      0.490020    99A      0.498087  
     100A      0.509942   101A      0.516231   102A      0.516880  
     103A      0.519476   104A      0.527213   105A      0.528317  
     106A      0.530395   107A      0.547330   108A      0.551446  
     109A      0.553235   110A      0.555464   111A      0.563601  
     112A      0.569773   113A      0.582000   114A      0.590160  
     115A      0.607246   116A      0.611490   117A      0.613994  
     118A      0.617072   119A      0.632608   120A      0.644813  
     121A      0.646455   122A      0.656041   123A      0.667337  
     124A      0.669716   125A      0.700909   126A      0.717328  
     127A      0.717961   128A      0.724618   129A      0.738591  
     130A      0.754163   131A      0.784534   132A      0.785926  
     133A      0.803997   134A      0.824477   135A      0.829432  
     136A      0.834429   137A      0.837294   138A      0.842227  
     139A      0.844332   140A      0.859342   141A      0.862213  
     142A      0.865601   143A      0.875741   144A      0.882305  
     145A      0.886142   146A      0.900249   147A      0.902599  
     148A      0.909581   149A      0.919885   150A      0.922421  
     151A      0.930635   152A      0.931185   153A      0.933252  
     154A      0.936237   155A      0.951664   156A      0.960111  
     157A      0.968640   158A      0.970053   159A      0.972216  
     160A      0.973395   161A      0.983879   162A      0.986567  
     163A      1.007907   164A      1.013181   165A      1.015860  
     166A      1.034471   167A      1.040517   168A      1.044495  
     169A      1.054656   170A      1.079534   171A      1.093422  
     172A      1.097150   173A      1.108052   174A      1.110236  
     175A      1.122131   176A      1.126671   177A      1.141239  
     178A      1.153841   179A      1.154845   180A      1.159506  
     181A      1.162000   182A      1.166036   183A      1.167993  
     184A      1.170401   185A      1.175654   186A      1.176182  
     187A      1.187370   188A      1.204605   189A      1.210510  
     190A      1.241480   191A      1.241874   192A      1.246263  
     193A      1.251040   194A      1.253271   195A      1.262835  
     196A      1.270548   197A      1.281739   198A      1.284517  
     199A      1.307105   200A      1.308043   201A      1.315498  
     202A      1.319494   203A      1.335222   204A      1.342478  
     205A      1.356281   206A      1.356412   207A      1.366783  
     208A      1.390079   209A      1.395035   210A      1.400082  
     211A      1.425294   212A      1.425500   213A      1.442788  
     214A      1.457490   215A      1.463570   216A      1.476992  
     217A      1.500207   218A      1.502909   219A      1.539870  
     220A      1.560672   221A      1.566578   222A      1.574400  
     223A      1.579751   224A      1.580200   225A      1.587011  
     226A      1.602106   227A      1.617526   228A      1.621694  
     229A      1.625582   230A      1.649277   231A      1.652944  
     232A      1.659355   233A      1.669537   234A      1.679032  
     235A      1.687604   236A      1.694454   237A      1.696884  
     238A      1.698784   239A      1.718883   240A      1.725802  
     241A      1.736924   242A      1.742640   243A      1.747257  
     244A      1.752656   245A      1.770376   246A      1.774438  
     247A      1.774894   248A      1.783623   249A      1.794779  
     250A      1.796867   251A      1.806151   252A      1.808989  
     253A      1.815081   254A      1.851271   255A      1.852065  
     256A      1.852113   257A      1.883898   258A      1.892763  
     259A      1.916432   260A      1.916568   261A      1.939069  
     262A      1.940354   263A      1.941485   264A      1.957096  
     265A      1.961335   266A      1.967869   267A      1.985231  
     268A      2.000132   269A      2.004501   270A      2.012299  
     271A      2.042396   272A      2.051274   273A      2.057683  
     274A      2.080041   275A      2.092540   276A      2.095583  
     277A      2.121109   278A      2.152876   279A      2.153393  
     280A      2.166876   281A      2.178339   282A      2.184014  
     283A      2.189154   284A      2.242841   285A      2.246677  
     286A      2.249318   287A      2.252527   288A      2.253761  
     289A      2.286965   290A      2.290118   291A      2.316915  
     292A      2.321688   293A      2.330743   294A      2.339992  
     295A      2.342535   296A      2.359394   297A      2.391041  
     298A      2.398597   299A      2.417549   300A      2.441298  
     301A      2.454095   302A      2.459604   303A      2.476810  
     304A      2.476847   305A      2.492243   306A      2.509518  
     307A      2.572049   308A      2.584956   309A      2.644824  
     310A      2.650789   311A      2.714263   312A      2.724692  
     313A      2.737200   314A      2.829140   315A      2.918716  
     316A      2.929543   317A      3.013071   318A      3.109508  
     319A      3.228154   320A      3.254475   321A      3.282422  
     322A      3.348511   323A      3.424630   324A      3.432120  
     325A      3.451450   326A      3.467299   327A      3.486710  
     328A      3.496959   329A      3.500153   330A      3.521620  
     331A      3.526008   332A      3.533671   333A      3.593555  
     334A      3.597903   335A      3.602313   336A      3.602865  
     337A      3.618453   338A      3.644966   339A      3.682931  
     340A      3.683194   341A      3.686849   342A      3.698367  
     343A      3.724771   344A      3.738283   345A      3.742466  
     346A      3.749754   347A      3.764723   348A      3.766511  
     349A      3.778191   350A      3.796572   351A      3.804380  
     352A      3.806751   353A      3.828314   354A      3.866229  
     355A      3.871268   356A      3.875138   357A      3.878093  
     358A      3.899641   359A      3.905926   360A      3.917012  
     361A      3.929878   362A      3.943412   363A      3.950028  
     364A      3.967753   365A      3.983736   366A      3.989713  
     367A      3.991363   368A      3.994888   369A      4.009066  
     370A      4.023873   371A      4.025243   372A      4.054608  
     373A      4.066630   374A      4.067105   375A      4.076519  
     376A      4.106914   377A      4.154937   378A      4.170227  
     379A      4.184621   380A      4.192507   381A      4.198239  
     382A      4.221886   383A      4.235560   384A      4.252144  
     385A      4.257582   386A      4.260527   387A      4.281587  
     388A      4.299666   389A      4.312238   390A      4.325539  
     391A      4.332204   392A      4.349515   393A      4.359454  
     394A      4.398804   395A      4.409765   396A      4.446633  
     397A      4.462934   398A      4.470638   399A      4.523822  
     400A      4.525954   401A      4.544757   402A      4.558625  
     403A      4.607246   404A      4.617569   405A      4.652506  
     406A      4.664819   407A      4.670084   408A      4.683779  
     409A      4.700763   410A      4.714704   411A      4.734403  
     412A      4.735193   413A      4.749406   414A      4.761846  
     415A      4.797725   416A      4.819593   417A      4.837216  
     418A      4.846966   419A      4.859438   420A      4.869872  
     421A      4.893379   422A      4.894348   423A      4.900966  
     424A      4.912356   425A      4.940554   426A      4.947788  
     427A      4.961420   428A      5.001940   429A      5.021479  
     430A      5.038123   431A      5.088007   432A      5.104579  
     433A      5.109472   434A      5.132099   435A      5.168310  
     436A      5.182303   437A      5.185147   438A      5.200242  
     439A      5.219395   440A      5.227907   441A      5.233012  
     442A      5.258038   443A      5.283026   444A      5.283308  
     445A      5.291023   446A      5.316019   447A      5.356872  
     448A      5.361093   449A      5.374104   450A      5.401678  
     451A      5.402880   452A      5.420080   453A      5.446198  
     454A      5.447401   455A      5.448110   456A      5.503042  
     457A      5.505807   458A      5.509584   459A      5.562908  
     460A      5.574739   461A      5.606853   462A      5.625520  
     463A      5.666718   464A      5.674241   465A      5.691581  
     466A      5.700403   467A      5.719475   468A      5.766143  
     469A      5.773794   470A      5.798027   471A      5.808871  
     472A      5.813013   473A      5.856569   474A      5.876801  
     475A      5.930375   476A      5.967012   477A      5.979778  
     478A      6.003589   479A      6.073802   480A      6.101988  
     481A      6.133685   482A      6.180712   483A      6.198344  
     484A      6.205334   485A      6.218039   486A      6.250147  
     487A      6.285048   488A      6.291481   489A      6.322684  
     490A      6.352453   491A      6.414947   492A      6.447132  
     493A      6.574833   494A      6.624975   495A      6.742835  
     496A      6.794178   497A      6.825236   498A      6.854252  
     499A      6.859167   500A      6.902896   501A      7.063609  
     502A     17.684708   503A     18.051217   504A     18.054545  
     505A     18.434697   506A     19.158964  

    Final Occupation by Irrep:
              A 
    DOCC [    21 ]

  Energy converged.

  @DF-RHF Final Energy:  -196.40432023781261

   => Energetics <=

    Nuclear Repulsion Energy =            185.5087566204451832
    One-Electron Energy =                -630.8836886165781834
    Two-Electron Energy =                 248.9706117583203877
    DFT Exchange-Correlation Energy =       0.0000000000000000
    Empirical Dispersion Energy =           0.0000000000000000
    PCM Polarization Energy =               0.0000000000000000
    EFP Energy =                            0.0000000000000000
    Total Energy =                       -196.4043202378126125


  Saving occupied orbitals to File 180.

*** tstop() called on wr38 at Wed Sep 21 11:04:49 2016
Module time:
	user time   =     214.91 seconds =       3.58 minutes
	system time =       4.46 seconds =       0.07 minutes
	total time  =         21 seconds =       0.35 minutes
Total time:
	user time   =    1114.26 seconds =      18.57 minutes
	system time =      30.70 seconds =       0.51 minutes
	total time  =        115 seconds =       1.92 minutes


Properties will be evaluated at   0.000000,   0.000000,   0.000000 Bohr

Properties computed using the SCF density matrix

  Nuclear Dipole Moment: (a.u.)
     X:     0.0009      Y:     0.5656      Z:    -0.0521

  Electronic Dipole Moment: (a.u.)
     X:    -0.0010      Y:    -0.5984      Z:     0.0552

  Dipole Moment: (a.u.)
     X:    -0.0001      Y:    -0.0328      Z:     0.0030     Total:     0.0330

  Dipole Moment: (Debye)
     X:    -0.0002      Y:    -0.0834      Z:     0.0077     Total:     0.0838


  //>>>>>>>>>>>>>>>>>>>>>>>>>>>>>>>>>>>//
  //               DFMP2               //
  //<<<<<<<<<<<<<<<<<<<<<<<<<<<<<<<<<<<//


*** tstart() called on wr38
*** at Wed Sep 21 11:04:50 2016


*** tstop() called on wr38 at Wed Sep 21 11:04:50 2016
Module time:
	user time   =       3.40 seconds =       0.06 minutes
	system time =       0.05 seconds =       0.00 minutes
	total time  =          0 seconds =       0.00 minutes
Total time:
	user time   =    1118.23 seconds =      18.64 minutes
	system time =      30.77 seconds =       0.51 minutes
	total time  =        116 seconds =       1.93 minutes
	 --------------------------------------------------------
	                          DF-MP2                         
	      2nd-Order Density-Fitted Moller-Plesset Theory     
	              RMP2 Wavefunction,  12 Threads             
	                                                         
	        Rob Parrish, Justin Turney, Andy Simmonett,      
	           Ed Hohenstein, and C. David Sherrill          
	 --------------------------------------------------------

   => Auxiliary Basis Set <=

  Basis Set: 
    Number of shells: 308
    Number of basis function: 1082
    Number of Cartesian functions: 1340
    Spherical Harmonics?: true
    Max angular momentum: 4

	 --------------------------------------------------------
	                 NBF =   506, NAUX =  1082
	 --------------------------------------------------------
	   CLASS    FOCC     OCC    AOCC    AVIR     VIR    FVIR
	   PAIRS       5      21      16     485     485       0
	 --------------------------------------------------------

DGAS Warning! /src/lib/libfock/apps.cc:80 is not currently checking restricted

         ------------------------------------------------------------
                                     CPHF                           
                                  Rob Parrish                       
         ------------------------------------------------------------

  ==> Geometry <==

    Molecular point group: c1
    Full point group: C1

    Geometry (in Angstrom), charge = 0, multiplicity = 1:

       Center              X                  Y                   Z               Mass       
    ------------   -----------------  -----------------  -----------------  -----------------
           C         -2.534411209944     0.341575225769     0.012045543997    12.000000000000
           H         -2.580846899257     0.901093560295    -0.923134797699     1.007825032070
           H         -2.550569071719     1.063103234813     0.829916493690     1.007825032070
           H         -3.436598236844    -0.265354364238     0.083609680499     1.007825032070
           C          2.535736961766     0.323864135434    -0.073306949802    12.000000000000
           H          3.435528062245    -0.289361893667    -0.032037889160     1.007825032070
           H          2.554526437255     0.883275129713    -1.009524025205     1.007825032070
           H          2.584597678289     1.045168285413     0.743501310066     1.007825032070
           C          1.271460200355    -0.521083031268     0.026398658480    12.000000000000
           H          1.281932858557    -1.093430177750     0.958030103510     1.007825032070
           H          1.252195694911    -1.254408291459    -0.784458481291     1.007825032070
           C          0.000633561090     0.317319790078    -0.029443592587    12.000000000000
           H          0.016573449333     1.052164981708     0.782337698509     1.007825032070
           H         -0.013378426031     0.891070542630    -0.962115198618     1.007825032070
           C         -1.273501786662    -0.512348512717     0.068977902737    12.000000000000
           H         -1.286501428454    -1.245365993705    -0.742239471906     1.007825032070
           H         -1.256480503070    -1.084607514835     1.000491079378     1.007825032070

  Nuclear repulsion =  185.508756620445212
  Reference energy  = -196.404320237812613

  ==> Basis Set <==

  Basis Set: AUG-CC-PVTZ
    Number of shells: 178
    Number of basis function: 506
    Number of Cartesian functions: 575
    Spherical Harmonics?: true
    Max angular momentum: 3

  ==> CGRSolver (by Rob Parrish) <==

   Number of roots    =         1
   Preconditioning    =    JACOBI
   Convergence cutoff =     1E-06
   Maximum iterations =       100

  ==> CPHFRHamiltonian (by Rob Parrish) <== 

  ==> DFJK: Density-Fitted J/K Matrices <==

    J tasked:                  Yes
    K tasked:                  Yes
    wK tasked:                  No
    OpenMP threads:             12
    Integrals threads:          12
    Memory (MB):             42915
    Algorithm:                Core
    Integral Cache:           NONE
    Schwarz Cutoff:          1E-12
    Fitting Condition:       1E-12

   => Auxiliary Basis Set <=

  Basis Set: 
    Number of shells: 318
    Number of basis function: 1072
    Number of Cartesian functions: 1315
    Spherical Harmonics?: true
    Max angular momentum: 4

  ==> CPHF Iterations <==

  => Iterations <=

             Iter  Converged  Remaining    Residual
  CGR           1          0          1   8.928E-02
  CGR           2          0          1   1.241E-02
  CGR           3          0          1   3.100E-03
  CGR           4          0          1   8.058E-04
  CGR           5          0          1   1.569E-04
  CGR           6          0          1   3.187E-05
  CGR           7          0          1   6.061E-06
  CGR           8          0          1   1.593E-06
  CGR           9          1          0   4.210E-07

    CGRSolver converged.

  ==> DFCorrGrad: Density-Fitted Correlated Gradients <==

    OpenMP threads:             12
    Integrals threads:          12
    Memory (MB):             42915
    Schwarz Cutoff:          0E+00
    Fitting Condition:       1E-12

   => Auxiliary Basis Set <=

  Basis Set: 
    Number of shells: 318
    Number of basis function: 1072
    Number of Cartesian functions: 1315
    Spherical Harmonics?: true
    Max angular momentum: 4

	-----------------------------------------------------------
	 ==================> DF-MP2 Energies <==================== 
	-----------------------------------------------------------
	 Reference Energy          =    -196.4043202378126125 [Eh]
	 Singles Energy            =      -0.0000000000000000 [Eh]
	 Same-Spin Energy          =      -0.1946474659373033 [Eh]
	 Opposite-Spin Energy      =      -0.7110975916030311 [Eh]
	 Correlation Energy        =      -0.9057450575403344 [Eh]
	 Total Energy              =    -197.3100652953529561 [Eh]
	-----------------------------------------------------------
	 ================> DF-SCS-MP2 Energies <================== 
	-----------------------------------------------------------
	 SCS Same-Spin Scale       =       0.3333333333333333 [-]
	 SCS Opposite-Spin Scale   =       1.2000000000000000 [-]
	 SCS Same-Spin Energy      =      -0.0648824886457678 [Eh]
	 SCS Opposite-Spin Energy  =      -0.8533171099236373 [Eh]
	 SCS Correlation Energy    =      -0.9181995985694050 [Eh]
	 SCS Total Energy          =    -197.3225198363820141 [Eh]
	-----------------------------------------------------------


  -Total Gradient:
     Atom            X                  Y                   Z
    ------   -----------------  -----------------  -----------------
       1       -0.000110867793    -0.000254131148     0.000061315518
       2       -0.000090322025     0.000062294000     0.000002569863
       3       -0.000098359531     0.000078198232    -0.000016634275
       4       -0.000104350843     0.000122441310    -0.000017965663
       5        0.000115912207    -0.000310552437     0.000005521799
       6        0.000096339749     0.000135912363    -0.000008481678
       7        0.000092482612     0.000080608344     0.000000526577
       8        0.000099073695     0.000082383073    -0.000007730868
       9        0.000131254929     0.000502532306    -0.000020815793
      10       -0.000017685866    -0.000187558272     0.000005682768
      11       -0.000021874129    -0.000175717996     0.000027766454
      12        0.000087770878    -0.000517844220     0.000036350083
      13       -0.000015165899     0.000118887843    -0.000018564307
      14       -0.000039251513     0.000130259831    -0.000007397373
      15       -0.000196328344     0.000412780443    -0.000051345639
      16        0.000039096120    -0.000149745245     0.000015493893
      17        0.000032275756    -0.000130748427    -0.000006291361


			-----------------------------------------
			 OPTKING 2.0: for geometry optimizations 
			  - R.A. King,  Bethel University        
			-----------------------------------------

	Previous internal coordinate definitions found.
	---Fragment 1 Geometry and Gradient---
	 C          -4.7893430949        0.6454836305        0.0227627793
	 H          -4.8770938305        1.7028200491       -1.7444719514
	 H          -4.8198770286        2.0089739648        1.5683148862
	 H          -6.4942294964       -0.5014470766        0.1579993982
	 C           4.7918484028        0.6120145202       -0.1385300588
	 H           6.4922071595       -0.5468147323       -0.0605428364
	 H           4.8273553656        1.6691480951       -1.9077239322
	 H           4.8841817757        1.9750818222        1.4050138555
	 C           2.4027115675       -0.9847042216        0.0498862348
	 H           2.4225020234       -2.0662835814        1.8104145227
	 H           2.3663069282       -2.3704881297       -1.4824116923
	 C           0.0011972569        0.5996474998       -0.0556403264
	 H           0.0313192803        1.9883036620        1.4784039936
	 H          -0.0252815613        1.6838792907       -1.8181342337
	 C          -2.4065696065       -0.9681983736        0.1303493454
	 H          -2.4311353693       -2.3534006633       -1.4026293269
	 H          -2.3744040421       -2.0496111647        1.8906541384
	            -0.0001108678       -0.0002541311        0.0000613155
	            -0.0000903220        0.0000622940        0.0000025699
	            -0.0000983595        0.0000781982       -0.0000166343
	            -0.0001043508        0.0001224413       -0.0000179657
	             0.0001159122       -0.0003105524        0.0000055218
	             0.0000963397        0.0001359124       -0.0000084817
	             0.0000924826        0.0000806083        0.0000005266
	             0.0000990737        0.0000823831       -0.0000077309
	             0.0001312549        0.0005025323       -0.0000208158
	            -0.0000176859       -0.0001875583        0.0000056828
	            -0.0000218741       -0.0001757180        0.0000277665
	             0.0000877709       -0.0005178442        0.0000363501
	            -0.0000151659        0.0001188878       -0.0000185643
	            -0.0000392515        0.0001302598       -0.0000073974
	            -0.0001963283        0.0004127804       -0.0000513456
	             0.0000390961       -0.0001497452        0.0000154939
	             0.0000322758       -0.0001307484       -0.0000062914

	---Fragment 1 Intrafragment Coordinates---
	 - Coordinate -           - BOHR/RAD -       - ANG/DEG -
	 R(1,2)           =         2.061257	       1.090770
	 R(1,3)           =         2.061254	       1.090769
	 R(1,4)           =         2.059217	       1.089691
	 R(1,15)          =         2.879784	       1.523916
	 R(5,6)           =         2.059171	       1.089667
	 R(5,7)           =         2.061271	       1.090778
	 R(5,8)           =         2.061312	       1.090799
	 R(5,9)           =         2.879755	       1.523900
	 R(9,10)          =         2.066317	       1.093448
	 R(9,11)          =         2.066315	       1.093447
	 R(9,12)          =         2.878989	       1.523495
	 R(12,13)         =         2.069436	       1.095098
	 R(12,14)         =         2.069455	       1.095108
	 R(12,15)         =         2.879249	       1.523633
	 R(15,16)         =         2.066256	       1.093415
	 R(15,17)         =         2.066195	       1.093383
	 B(1,15,12)       =         1.965335	     112.605389
	 B(1,15,16)       =         1.915692	     109.761092
	 B(1,15,17)       =         1.915573	     109.754242
	 B(2,1,3)         =         1.878543	     107.632607
	 B(2,1,4)         =         1.882587	     107.864299
	 B(2,1,15)        =         1.933378	     110.774397
	 B(3,1,4)         =         1.882755	     107.873898
	 B(3,1,15)        =         1.933611	     110.787729
	 B(4,1,15)        =         1.950330	     111.745673
	 B(5,9,10)        =         1.915613	     109.756544
	 B(5,9,11)        =         1.915536	     109.752106
	 B(5,9,12)        =         1.965475	     112.613406
	 B(6,5,7)         =         1.882730	     107.872464
	 B(6,5,8)         =         1.882612	     107.865698
	 B(6,5,9)         =         1.950405	     111.749996
	 B(7,5,8)         =         1.878433	     107.626309
	 B(7,5,9)         =         1.933504	     110.781642
	 B(8,5,9)         =         1.933512	     110.782066
	 B(9,12,13)       =         1.907064	     109.266712
	 B(9,12,14)       =         1.907325	     109.281653
	 B(9,12,15)       =         1.977436	     113.298758
	 B(10,9,11)       =         1.855575	     106.316596
	 B(10,9,12)       =         1.904212	     109.103302
	 B(11,9,12)       =         1.904129	     109.098557
[...]
      11        0.000000017226     0.000000110957    -0.000000199736
      12        0.000000228779     0.000000962974    -0.000000085630
      13       -0.000000039815     0.000000003275     0.000000041262
      14       -0.000000015111     0.000000005841    -0.000000060825
      15       -0.000000961774    -0.000000261292     0.000000016897
      16        0.000000029318     0.000000045399    -0.000000152137
      17        0.000000021540     0.000000086910     0.000000149353


			-----------------------------------------
			 OPTKING 2.0: for geometry optimizations 
			  - R.A. King,  Bethel University        
			-----------------------------------------

	Previous internal coordinate definitions found.
	---Fragment 1 Geometry and Gradient---
	 C          -4.7850676510        0.6468235324        0.0222835753
	 H          -4.8696996894        1.7034611881       -1.7453184908
	 H          -4.8129107812        2.0094064081        1.5684583704
	 H          -6.4903725492       -0.4994527463        0.1573387351
	 C           4.7874998471        0.6134924437       -0.1386844588
	 H           6.4883568903       -0.5446486970       -0.0609067213
	 H           4.8200112066        1.6697211501       -1.9082571857
	 H           4.8767995576        1.9756675336        1.4055200160
	 C           2.4009951214       -0.9863605261        0.0499207496
	 H           2.4215960957       -2.0658278063        1.8112451361
	 H           2.3651294905       -2.3700383197       -1.4837307577
	 C           0.0011560158        0.5995356316       -0.0553723052
	 H           0.0317957741        1.9866918024        1.4796112920
	 H          -0.0247221469        1.6821950993       -1.8184646930
	 C          -2.4047690207       -0.9696290564        0.1307315552
	 H          -2.4301194089       -2.3533436672       -1.4030965549
	 H          -2.3736534901       -2.0491335493        1.8918787391
	             0.0000007609       -0.0000005217       -0.0000000670
	            -0.0000000463        0.0000000520       -0.0000001030
	            -0.0000000719        0.0000001040        0.0000001680
	            -0.0000003231       -0.0000000808        0.0000000503
	            -0.0000005695       -0.0000002872        0.0000001146
	             0.0000002913       -0.0000002014       -0.0000000169
	             0.0000000806        0.0000000470       -0.0000001422
	             0.0000000456        0.0000000441        0.0000000786
	             0.0000005002       -0.0000002340        0.0000000254
	             0.0000000520        0.0000001239        0.0000001829
	             0.0000000172        0.0000001110       -0.0000001997
	             0.0000002288        0.0000009630       -0.0000000856
	            -0.0000000398        0.0000000033        0.0000000413
	            -0.0000000151        0.0000000058       -0.0000000608
	            -0.0000009618       -0.0000002613        0.0000000169
	             0.0000000293        0.0000000454       -0.0000001521
	             0.0000000215        0.0000000869        0.0000001494

	---Fragment 1 Intrafragment Coordinates---
	 - Coordinate -           - BOHR/RAD -       - ANG/DEG -
	 R(1,2)           =         2.061083	       1.090678
	 R(1,3)           =         2.061083	       1.090678
	 R(1,4)           =         2.059188	       1.089675
	 R(1,15)          =         2.879323	       1.523672
	 R(5,6)           =         2.059188	       1.089675
	 R(5,7)           =         2.061083	       1.090678
	 R(5,8)           =         2.061083	       1.090678
	 R(5,9)           =         2.879324	       1.523673
	 R(9,10)          =         2.065899	       1.093227
	 R(9,11)          =         2.065899	       1.093227
	 R(9,12)          =         2.878434	       1.523202
	 R(12,13)         =         2.069134	       1.094939
	 R(12,14)         =         2.069134	       1.094939
	 R(12,15)         =         2.878435	       1.523202
	 R(15,16)         =         2.065899	       1.093227
	 R(15,17)         =         2.065899	       1.093227
	 B(1,15,12)       =         1.963299	     112.488763
	 B(1,15,16)       =         1.915493	     109.749659
	 B(1,15,17)       =         1.915493	     109.749637
	 B(2,1,3)         =         1.879561	     107.690901
	 B(2,1,4)         =         1.883490	     107.916023
	 B(2,1,15)        =         1.932700	     110.735531
	 B(3,1,4)         =         1.883489	     107.915985
	 B(3,1,15)        =         1.932699	     110.735518
	 B(4,1,15)        =         1.949412	     111.693073
	 B(5,9,10)        =         1.915491	     109.749576
	 B(5,9,11)        =         1.915492	     109.749579
	 B(5,9,12)        =         1.963301	     112.488846
	 B(6,5,7)         =         1.883490	     107.916006
	 B(6,5,8)         =         1.883490	     107.916038
	 B(6,5,9)         =         1.949410	     111.692974
	 B(7,5,8)         =         1.879561	     107.690922
	 B(7,5,9)         =         1.932700	     110.735551
	 B(8,5,9)         =         1.932700	     110.735545
	 B(9,12,13)       =         1.906975	     109.261606
	 B(9,12,14)       =         1.906974	     109.261588
	 B(9,12,15)       =         1.975942	     113.213131
	 B(10,9,11)       =         1.857848	     106.446831
	 B(10,9,12)       =         1.904332	     109.110184
	 B(11,9,12)       =         1.904332	     109.110158
	 B(12,15,16)      =         1.904332	     109.110163
	 B(12,15,17)      =         1.904331	     109.110153
	 B(13,12,14)      =         1.856178	     106.351181
	 B(13,12,15)      =         1.906974	     109.261547
	 B(14,12,15)      =         1.906974	     109.261560
	 B(16,15,17)      =         1.857847	     106.446802
	 D(1,15,12,9)     =         3.141593	     180.000000
	 D(1,15,12,13)    =         1.012090	      57.988472
	 D(1,15,12,14)    =        -1.012091	     -57.988533
	 D(2,1,15,12)     =         1.041876	      59.695115
	 D(2,1,15,16)     =        -1.081762	     -61.980425
	 D(2,1,15,17)     =        -3.117671	    -178.629374
	 D(3,1,15,12)     =        -1.041876	     -59.695106
	 D(3,1,15,16)     =         3.117670	     178.629355
	 D(3,1,15,17)     =         1.081762	      61.980406
	 D(4,1,15,12)     =         3.141593	     180.000000
	 D(4,1,15,16)     =         1.017954	      58.324494
	 D(4,1,15,17)     =        -1.017954	     -58.324455
	 D(5,9,12,13)     =        -1.012091	     -57.988546
	 D(5,9,12,14)     =         1.012090	      57.988507
	 D(5,9,12,15)     =         3.141593	     180.000000
	 D(6,5,9,10)      =         1.017954	      58.324464
	 D(6,5,9,11)      =        -1.017953	     -58.324438
	 D(6,5,9,12)      =         3.141593	     180.000000
	 D(7,5,9,10)      =         3.117670	     178.629307
	 D(7,5,9,11)      =         1.081762	      61.980406
	 D(7,5,9,12)      =        -1.041877	     -59.695128
	 D(8,5,9,10)      =        -1.081762	     -61.980416
	 D(8,5,9,11)      =        -3.117670	    -178.629318
	 D(8,5,9,12)      =         1.041877	      59.695148
	 D(9,12,15,16)    =        -1.011618	     -57.961470
	 D(9,12,15,17)    =         1.011618	      57.961458
	 D(10,9,12,13)    =         1.117883	      64.049973
	 D(10,9,12,14)    =        -3.141121	    -179.972974
	 D(10,9,12,15)    =        -1.011619	     -57.961499
	 D(11,9,12,13)    =         3.141121	     179.972949
	 D(11,9,12,14)    =        -1.117883	     -64.049997
	 D(11,9,12,15)    =         1.011619	      57.961477
	 D(13,12,15,16)   =        -3.141121	    -179.972974
	 D(13,12,15,17)   =        -1.117884	     -64.050047
	 D(14,12,15,16)   =         1.117884	      64.050020
	 D(14,12,15,17)   =         3.141121	     179.972948

	Current energy   :      -197.3100689083

	Energy change for the previous step:
		Projected    :        -0.0000000002
		Actual       :         0.0000000005

	Performing BFGS update.
	Previous computed or guess Hessian on step 1.
	Denominators (dg)(dq) or (dq)(dq) are very small.
	 Skipping Hessian update for step 5.
	Denominators (dg)(dq) or (dq)(dq) are very small.
	 Skipping Hessian update for step 4.
	Steps to be used in Hessian update: 3 2
	Taking RFO optimization step.
	Going to follow RFO solution 1.
	Using RFO vector 1.
	Norm of target step-size    0.00001
	Projected energy change by RFO approximation:        -0.0000000000

	Back-transformation to cartesian coordinates...
	Successfully converged to displaced geometry.
	First geometry is closer to target in internal coordinates, so am using that one.
	First geometry has RMS(Delta(q)) = 9.48e-08

	--- Internal Coordinate Step in ANG or DEG, aJ/ANG or AJ/DEG ---
	 ---------------------------------------------------------------------------
	   Coordinate                Previous        Force       Change         New 
	   ----------                --------       ------       ------       ------
	    1 R(1,2)          =      1.090678    -0.000001    -0.000000     1.090678
	    2 R(1,3)          =      1.090678    -0.000002    -0.000000     1.090678
	    3 R(1,4)          =      1.089675    -0.000003    -0.000000     1.089675
	    4 R(1,15)         =      1.523672     0.000004     0.000001     1.523673
	    5 R(5,6)          =      1.089675    -0.000003    -0.000001     1.089675
	    6 R(5,7)          =      1.090678    -0.000001    -0.000000     1.090678
	    7 R(5,8)          =      1.090678    -0.000001    -0.000000     1.090678
	    8 R(5,9)          =      1.523673     0.000003     0.000001     1.523673
	    9 R(9,10)         =      1.093227    -0.000001    -0.000000     1.093226
	   10 R(9,11)         =      1.093227    -0.000001    -0.000000     1.093226
	   11 R(9,12)         =      1.523202    -0.000005    -0.000001     1.523201
	   12 R(12,13)        =      1.094939    -0.000000    -0.000000     1.094938
	   13 R(12,14)        =      1.094939    -0.000000    -0.000000     1.094938
	   14 R(12,15)        =      1.523202    -0.000007    -0.000001     1.523201
	   15 R(15,16)        =      1.093227    -0.000001    -0.000000     1.093226
	   16 R(15,17)        =      1.093227    -0.000001    -0.000000     1.093226
	   17 B(1,15,12)      =    112.488763    -0.000000    -0.000093   112.488670
	   18 B(1,15,16)      =    109.749659     0.000000     0.000016   109.749675
	   19 B(1,15,17)      =    109.749637     0.000000     0.000036   109.749673
	   20 B(2,1,3)        =    107.690901     0.000000     0.000005   107.690906
	   21 B(2,1,4)        =    107.916023     0.000000     0.000026   107.916049
	   22 B(2,1,15)       =    110.735531    -0.000000    -0.000025   110.735507
	   23 B(3,1,4)        =    107.915985     0.000000     0.000055   107.916041
	   24 B(3,1,15)       =    110.735518    -0.000000    -0.000018   110.735500
	   25 B(4,1,15)       =    111.693073    -0.000000    -0.000039   111.693034
	   26 B(5,9,10)       =    109.749576     0.000000     0.000073   109.749649
	   27 B(5,9,11)       =    109.749579     0.000000     0.000073   109.749652
	   28 B(5,9,12)       =    112.488846    -0.000000    -0.000154   112.488692
	   29 B(6,5,7)        =    107.916006     0.000000     0.000041   107.916047
	   30 B(6,5,8)        =    107.916038     0.000000     0.000016   107.916054
	   31 B(6,5,9)        =    111.692974     0.000000     0.000030   111.693004
	   32 B(7,5,8)        =    107.690922     0.000000    -0.000010   107.690912
	   33 B(7,5,9)        =    110.735551    -0.000000    -0.000040   110.735511
	   34 B(8,5,9)        =    110.735545    -0.000000    -0.000035   110.735511
	   35 B(9,12,13)      =    109.261606    -0.000000    -0.000065   109.261541
	   36 B(9,12,14)      =    109.261588    -0.000000    -0.000055   109.261532
	   37 B(9,12,15)      =    113.213131     0.000000     0.000213   113.213344
	   38 B(10,9,11)      =    106.446831    -0.000000    -0.000078   106.446753
	   39 B(10,9,12)      =    109.110184     0.000000     0.000033   109.110218
	   40 B(11,9,12)      =    109.110158     0.000000     0.000056   109.110214
	   41 B(12,15,16)     =    109.110163     0.000000     0.000044   109.110207
	   42 B(12,15,17)     =    109.110153     0.000000     0.000053   109.110207
	   43 B(13,12,14)     =    106.351181     0.000000    -0.000040   106.351141
	   44 B(13,12,15)     =    109.261547    -0.000000    -0.000029   109.261519
	   45 B(14,12,15)     =    109.261560    -0.000000    -0.000039   109.261521
	   46 B(16,15,17)     =    106.446802    -0.000000    -0.000055   106.446747
	   47 D(1,15,12,9)    =    180.000000     0.000000     0.000000   180.000000
	   48 D(1,15,12,13)   =     57.988472    -0.000000    -0.000013    57.988460
	   49 D(1,15,12,14)   =    -57.988533     0.000000     0.000073   -57.988460
	   50 D(2,1,15,12)    =     59.695115    -0.000000    -0.000022    59.695093
	   51 D(2,1,15,16)    =    -61.980425    -0.000000    -0.000027   -61.980452
	   52 D(2,1,15,17)    =   -178.629374     0.000000     0.000009  -178.629365
	   53 D(3,1,15,12)    =    -59.695106     0.000000    -0.000001   -59.695106
	   54 D(3,1,15,16)    =    178.629355     0.000000    -0.000006   178.629349
	   55 D(3,1,15,17)    =     61.980406     0.000000     0.000030    61.980436
	   56 D(4,1,15,12)    =    180.000000    -0.000000     0.000000   180.000000
	   57 D(4,1,15,16)    =     58.324494    -0.000000    -0.000037    58.324456
	   58 D(4,1,15,17)    =    -58.324455     0.000000    -0.000002   -58.324457
	   59 D(5,9,12,13)    =    -57.988546     0.000000     0.000066   -57.988480
	   60 D(5,9,12,14)    =     57.988507    -0.000000    -0.000049    57.988459
	   61 D(5,9,12,15)    =    180.000000    -0.000000     0.000000   180.000000
	   62 D(6,5,9,10)     =     58.324464     0.000000    -0.000015    58.324449
	   63 D(6,5,9,11)     =    -58.324438    -0.000000    -0.000006   -58.324443
	   64 D(6,5,9,12)     =    180.000000    -0.000000     0.000000   180.000000
	   65 D(7,5,9,10)     =    178.629307     0.000000     0.000029   178.629336
	   66 D(7,5,9,11)     =     61.980406     0.000000     0.000038    61.980444
	   67 D(7,5,9,12)     =    -59.695128     0.000000     0.000019   -59.695109
	   68 D(8,5,9,10)     =    -61.980416    -0.000000    -0.000032   -61.980448
	   69 D(8,5,9,11)     =   -178.629318    -0.000000    -0.000023  -178.629341
	   70 D(8,5,9,12)     =     59.695148    -0.000000    -0.000041    59.695107
	   71 D(9,12,15,16)   =    -57.961470    -0.000000     0.000017   -57.961453
	   72 D(9,12,15,17)   =     57.961458    -0.000000     0.000006    57.961463
	   73 D(10,9,12,13)   =     64.049973     0.000000     0.000081    64.050053
	   74 D(10,9,12,14)   =   -179.972974    -0.000000    -0.000035  -179.973008
	   75 D(10,9,12,15)   =    -57.961499     0.000000     0.000020   -57.961479
	   76 D(11,9,12,13)   =    179.972949     0.000000     0.000037   179.972986
	   77 D(11,9,12,14)   =    -64.049997    -0.000000    -0.000078   -64.050076
	   78 D(11,9,12,15)   =     57.961477    -0.000000    -0.000024    57.961454
	   79 D(13,12,15,16)  =   -179.972974    -0.000000    -0.000023  -179.972997
	   80 D(13,12,15,17)  =    -64.050047    -0.000000    -0.000034   -64.050081
	   81 D(14,12,15,16)  =     64.050020     0.000000     0.000063    64.050083
	   82 D(14,12,15,17)  =    179.972948     0.000000     0.000051   179.972999
	 ---------------------------------------------------------------------------

  ==> Convergence Check <==

  Measures of convergence in internal coordinates in au.
  Criteria marked as inactive (o), active & met (*), and active & unmet ( ).
  ---------------------------------------------------------------------------------------------
   Step     Total Energy     Delta E     MAX Force     RMS Force      MAX Disp      RMS Disp   
  ---------------------------------------------------------------------------------------------
    Convergence Criteria             o    2.00e-06 *    1.00e-06 *    6.00e-06 *    4.00e-06 *
  ---------------------------------------------------------------------------------------------
      6    -197.31006891    5.46e-10 o    8.13e-07 *    2.00e-07 *    3.72e-06 *    9.42e-07 *  ~
  ---------------------------------------------------------------------------------------------


  **** Optimization is complete! (in 6 steps) ****

  ==> Optimization Summary <==

  Measures of convergence in internal coordinates in au.
  --------------------------------------------------------------------------------------------------------------- ~
   Step         Total Energy             Delta E       MAX Force       RMS Force        MAX Disp        RMS Disp  ~
  --------------------------------------------------------------------------------------------------------------- ~
      1    -197.309918073227   -197.309918073227      0.00442168      0.00110814      0.01435732      0.00370483  ~
      2    -197.310065295353     -0.000147222126      0.00036770      0.00012867      0.00219748      0.00089886  ~
      3    -197.310068714990     -0.000003419637      0.00008420      0.00003173      0.00042008      0.00017514  ~
      4    -197.310068900619     -0.000000185629      0.00001881      0.00000574      0.00009984      0.00004167  ~
      5    -197.310068908800     -0.000000008181      0.00000200      0.00000051      0.00001089      0.00000401  ~
      6    -197.310068908255      0.000000000546      0.00000081      0.00000020      0.00000372      0.00000094  ~
  --------------------------------------------------------------------------------------------------------------- ~

	Writing optimization data to binary file.
	Final energy is   -197.3100689082546
	Final (previous) structure:
	Cartesian Geometry (in Angstrom)
	    C    -2.5321487425   0.3422842713   0.0117919602
	    H    -2.5769340883   0.9014328364  -0.9235827671
	    H    -2.5468826924   1.0633320740   0.8299924222
	    H    -3.4345572283  -0.2642990101   0.0832600726
	    C     2.5334358052   0.3246462188  -0.0733886548
	    H     3.4334905875  -0.2882156771  -0.0322304488
	    H     2.5506400757   0.8835783773  -1.0098062108
	    H     2.5806911768   1.0454782305   0.7437691587
	    C     1.2705518962  -0.5219595099   0.0264169229
	    H     1.2814534622  -1.0931889919   0.9584696452
	    H     1.2515726218  -1.2541702623  -0.7851565007
	    C     0.0006117372   0.3172605920  -0.0293017619
	    H     0.0168255990   1.0513120223   0.7829765733
	    H    -0.0130823967   0.8901793069  -0.9622900702
	    C    -1.2725489577  -0.5131055974   0.0691801595
	    H    -1.2859638054  -1.2453358327  -0.7424867183
	    H    -1.2560833281  -1.0843547716   1.0011391101
	Saving final (previous) structure.
			--------------------------
			 OPTKING Finished Execution 
			--------------------------

    Final optimized geometry and variables:
    Molecular point group: c1
    Full point group: C1

    Geometry (in Angstrom), charge = 0, multiplicity = 1:

    C           -2.532148742473     0.342284271328     0.011791960172
    H           -2.576934088291     0.901432836442    -0.923582767078
    H           -2.546882692410     1.063332073951     0.829992422231
    H           -3.434557228288    -0.264299010126     0.083260072642
    C            2.533435805200     0.324646218836    -0.073388654789
    H            3.433490587549    -0.288215677149    -0.032230448769
    H            2.550640075676     0.883578377332    -1.009806210808
    H            2.580691176751     1.045478230506     0.743769158685
    C            1.270551896172    -0.521959509858     0.026416922912
    H            1.281453462229    -1.093188991945     0.958469645192
    H            1.251572621753    -1.254170262252    -0.785156500668
    C            0.000611737211     0.317260591980    -0.029301761880
    H            0.016825598988     1.051312022296     0.782976573321
    H           -0.013082396710     0.890179306943    -0.962290070180
    C           -1.272548957692    -0.513105597418     0.069180159481
    H           -1.285963805355    -1.245335832662    -0.742486718302
    H           -1.256083328058    -1.084354771640     1.001139110143

	Cleaning optimization helper files.

*** Psi4 exiting successfully. Buy a developer a beer!
