    -----------------------------------------------------------------------
          Psi4: An Open-Source Ab Initio Electronic Structure Package
                              Psi4 1.0.0 Driver

                          Git: Rev {master} 6a9a71b dirty

    J. M. Turney, A. C. Simmonett, R. M. Parrish, E. G. Hohenstein,
    F. A. Evangelista, J. T. Fermann, B. J. Mintz, L. A. Burns, J. J. Wilke,
    M. L. Abrams, N. J. Russ, M. L. Leininger, C. L. Janssen, E. T. Seidl,
    W. D. Allen, H. F. Schaefer, R. A. King, E. F. Valeev, C. D. Sherrill,
    and T. D. Crawford, WIREs Comput. Mol. Sci. 2, 556-565 (2012)
    (doi: 10.1002/wcms.93)

                         Additional Contributions by
    A. E. DePrince, U. Bozkaya, A. Yu. Sokolov, D. G. A. Smith, R. Di Remigio,
    R. M. Richard, J. F. Gonthier, H. R. McAlexander, M. Saitow, and
    B. P. Pritchard
    -----------------------------------------------------------------------


    Psi4 started on: Wed Sep 21 11:02:53 2016

    Process ID:   6557
    PSI4DATADIR: /usr/local/hpc5/psi4conda/share/psi4
    Memory level set to 256.000 MB

  ==> Input File <==

--------------------------------------------------------------------------
memory 60 Gb

molecule molecule_3 {
0 1
C          1.78000        0.71700        0.28000
H          2.16800        0.17600        1.14200
H          1.09900        1.48200        0.64800
H          2.61400        1.22200       -0.20300
C         -1.77800        0.72900       -0.25900
H         -2.61100        1.22300        0.23700
H         -1.09600        1.50200       -0.60600
H         -2.16800        0.21300       -1.13600
C         -1.08500       -0.24800        0.67300
H         -1.82300       -0.93300        1.09200
H         -0.65900        0.29200        1.51900
C         -0.00100       -1.06400       -0.01500
H          0.46300       -1.72800        0.71700
H         -0.46700       -1.70600       -0.76600
C          1.08500       -0.23200       -0.68000
H          1.82100       -0.90700       -1.11700
H          0.66000        0.33200       -1.51000
}

set globals {
  reference rhf
  g_convergence gau_verytight
  basis aug-cc-pvtz
  freeze_core true
}
optimize('mp2')
--------------------------------------------------------------------------
/usr/local/hpc5/psi4conda/lib/python2.7/site-packages/v2rdm_casscf/v2rdm_casscf.so loaded.

  Memory set to  60.000 GiB by Python script.
gradient() will perform analytic gradient computation.
    SCF Algorithm Type (re)set to DF.

*** tstart() called on wr37
*** at Wed Sep 21 11:02:54 2016


         ---------------------------------------------------------
                                   SCF
            by Justin Turney, Rob Parrish, and Andy Simmonett
                              RHF Reference
                       12 Threads,  60000 MiB Core
         ---------------------------------------------------------

  ==> Geometry <==

    Molecular point group: c1
    Full point group: C1

    Geometry (in Angstrom), charge = 0, multiplicity = 1:

       Center              X                  Y                   Z               Mass       
    ------------   -----------------  -----------------  -----------------  -----------------
           C          1.779819571074     0.716984192318     0.279928800834    12.000000000000
           H          2.167819571074     0.175984192318     1.141928800834     1.007825032070
           H          1.098819571074     1.481984192318     0.647928800834     1.007825032070
           H          2.613819571074     1.221984192318    -0.203071199166     1.007825032070
           C         -1.778180428926     0.728984192318    -0.259071199166    12.000000000000
           H         -2.611180428926     1.222984192318     0.236928800834     1.007825032070
           H         -1.096180428926     1.501984192318    -0.606071199166     1.007825032070
           H         -2.168180428926     0.212984192318    -1.136071199166     1.007825032070
           C         -1.085180428926    -0.248015807682     0.672928800834    12.000000000000
           H         -1.823180428926    -0.933015807682     1.091928800834     1.007825032070
           H         -0.659180428926     0.291984192318     1.518928800834     1.007825032070
           C         -0.001180428926    -1.064015807682    -0.015071199166    12.000000000000
           H          0.462819571074    -1.728015807682     0.716928800834     1.007825032070
           H         -0.467180428926    -1.706015807682    -0.766071199166     1.007825032070
           C          1.084819571074    -0.232015807682    -0.680071199166    12.000000000000
           H          1.820819571074    -0.907015807682    -1.117071199166     1.007825032070
           H          0.659819571074     0.331984192318    -1.510071199166     1.007825032070

  Running in c1 symmetry.

  Rotational constants: A =      0.25152  B =      0.10387  C =      0.09305 [cm^-1]
  Rotational constants: A =   7540.44264  B =   3113.87060  C =   2789.67054 [MHz]
  Nuclear repulsion =  193.228854429139943

  Charge       = 0
  Multiplicity = 1
  Electrons    = 42
  Nalpha       = 21
  Nbeta        = 21

  ==> Algorithm <==

  SCF Algorithm Type is DF.
  DIIS enabled.
  MOM disabled.
  Fractional occupation disabled.
  Guess Type is SAD.
  Energy threshold   = 1.00e-10
  Density threshold  = 1.00e-10
  Integral threshold = 0.00e+00

  ==> Primary Basis <==

  Basis Set: AUG-CC-PVTZ
    Number of shells: 178
    Number of basis function: 506
    Number of Cartesian functions: 575
    Spherical Harmonics?: true
    Max angular momentum: 3

  ==> Pre-Iterations <==

   -------------------------------------------------------
    Irrep   Nso     Nmo     Nalpha   Nbeta   Ndocc  Nsocc
   -------------------------------------------------------
     A        506     506       0       0       0       0
   -------------------------------------------------------
    Total     506     506      21      21      21       0
   -------------------------------------------------------

  ==> Integral Setup <==

  ==> DFJK: Density-Fitted J/K Matrices <==

    J tasked:                  Yes
    K tasked:                  Yes
    wK tasked:                  No
    OpenMP threads:             12
    Integrals threads:          12
    Memory (MB):             42915
    Algorithm:                Core
    Integral Cache:           NONE
    Schwarz Cutoff:          1E-12
    Fitting Condition:       1E-12

   => Auxiliary Basis Set <=

  Basis Set: 
    Number of shells: 318
    Number of basis function: 1072
    Number of Cartesian functions: 1315
    Spherical Harmonics?: true
    Max angular momentum: 4

  Minimum eigenvalue in the overlap matrix is 5.1507098719E-06.
  Using Symmetric Orthogonalization.
  SCF Guess: Superposition of Atomic Densities via on-the-fly atomic UHF.

  ==> Iterations <==

                           Total Energy        Delta E     RMS |[F,P]|

   @DF-RHF iter   0:  -198.52026080260518   -1.98520e+02   8.70604e-03 
   @DF-RHF iter   1:  -196.26703867502320    2.25322e+00   7.75108e-04 
   @DF-RHF iter   2:  -196.38338197170671   -1.16343e-01   2.65246e-04 DIIS
   @DF-RHF iter   3:  -196.39749033397297   -1.41084e-02   1.16564e-04 DIIS
   @DF-RHF iter   4:  -196.40005660211537   -2.56627e-03   1.64920e-05 DIIS
   @DF-RHF iter   5:  -196.40013408905904   -7.74869e-05   4.46639e-06 DIIS
   @DF-RHF iter   6:  -196.40013866966208   -4.58060e-06   1.11641e-06 DIIS
   @DF-RHF iter   7:  -196.40013890778263   -2.38121e-07   2.34169e-07 DIIS
   @DF-RHF iter   8:  -196.40013892189094   -1.41083e-08   5.36703e-08 DIIS
   @DF-RHF iter   9:  -196.40013892259296   -7.02016e-10   1.47722e-08 DIIS
   @DF-RHF iter  10:  -196.40013892265469   -6.17320e-11   4.03798e-09 DIIS
   @DF-RHF iter  11:  -196.40013892265935   -4.66116e-12   9.94408e-10 DIIS
   @DF-RHF iter  12:  -196.40013892265992   -5.68434e-13   2.41147e-10 DIIS
   @DF-RHF iter  13:  -196.40013892265998   -5.68434e-14   6.90384e-11 DIIS

  ==> Post-Iterations <==

    Orbital Energies (a.u.)
    -----------------------

    Doubly Occupied:                                                      

       1A    -11.210513     2A    -11.210357     3A    -11.208928  
       4A    -11.205816     5A    -11.205777     6A     -1.085829  
       7A     -1.009124     8A     -0.922964     9A     -0.842969  
      10A     -0.756854    11A     -0.638860    12A     -0.633349  
      13A     -0.573851    14A     -0.559809    15A     -0.555485  
      16A     -0.513192    17A     -0.499635    18A     -0.490623  
      19A     -0.455320    20A     -0.449129    21A     -0.447227  

    Virtual:                                                              

      22A      0.031171    23A      0.036369    24A      0.037409  
      25A      0.038922    26A      0.055597    27A      0.056656  
      28A      0.057365    29A      0.058110    30A      0.060253  
      31A      0.079959    32A      0.080932    33A      0.088246  
      34A      0.117201    35A      0.120745    36A      0.122754  
      37A      0.125029    38A      0.126389    39A      0.129943  
      40A      0.132292    41A      0.136798    42A      0.151628  
      43A      0.152364    44A      0.152646    45A      0.153589  
      46A      0.161528    47A      0.167250    48A      0.175310  
      49A      0.181227    50A      0.202477    51A      0.203211  
      52A      0.217152    53A      0.221946    54A      0.247627  
      55A      0.253596    56A      0.255736    57A      0.275905  
      58A      0.283661    59A      0.287778    60A      0.295194  
      61A      0.301683    62A      0.310557    63A      0.311806  
      64A      0.324568    65A      0.326647    66A      0.334196  
      67A      0.337390    68A      0.342768    69A      0.342836  
      70A      0.346396    71A      0.358590    72A      0.359204  
      73A      0.366992    74A      0.367458    75A      0.372681  
      76A      0.378962    77A      0.383778    78A      0.391555  
      79A      0.393141    80A      0.398284    81A      0.400445  
      82A      0.409859    83A      0.423004    84A      0.426113  
      85A      0.436433    86A      0.440192    87A      0.453861  
      88A      0.458875    89A      0.460839    90A      0.460853  
      91A      0.473288    92A      0.475976    93A      0.480033  
      94A      0.482680    95A      0.490336    96A      0.496106  
      97A      0.500839    98A      0.503329    99A      0.506794  
     100A      0.516979   101A      0.519901   102A      0.526040  
     103A      0.526972   104A      0.530169   105A      0.539642  
     106A      0.545277   107A      0.559180   108A      0.568108  
     109A      0.574191   110A      0.585313   111A      0.586958  
     112A      0.595268   113A      0.597351   114A      0.601564  
     115A      0.610041   116A      0.615177   117A      0.628532  
     118A      0.631657   119A      0.649543   120A      0.651588  
     121A      0.652966   122A      0.653959   123A      0.664567  
     124A      0.685281   125A      0.692457   126A      0.696871  
     127A      0.705518   128A      0.715778   129A      0.727939  
     130A      0.731787   131A      0.776855   132A      0.780324  
     133A      0.797366   134A      0.809045   135A      0.818894  
     136A      0.828482   137A      0.836375   138A      0.837557  
     139A      0.855185   140A      0.855731   141A      0.858417  
     142A      0.876601   143A      0.886188   144A      0.899183  
     145A      0.900845   146A      0.907066   147A      0.911520  
     148A      0.918100   149A      0.925474   150A      0.932945  
     151A      0.933417   152A      0.944732   153A      0.954200  
     154A      0.970299   155A      0.971753   156A      0.975474  
     157A      0.980201   158A      0.993110   159A      0.996695  
     160A      0.997112   161A      1.010485   162A      1.018708  
     163A      1.021805   164A      1.034197   165A      1.045639  
     166A      1.052661   167A      1.055939   168A      1.059032  
     169A      1.065230   170A      1.086090   171A      1.100082  
     172A      1.104265   173A      1.107881   174A      1.114408  
     175A      1.126341   176A      1.143250   177A      1.153715  
     178A      1.157901   179A      1.164834   180A      1.175211  
     181A      1.178226   182A      1.187466   183A      1.193515  
     184A      1.197526   185A      1.206100   186A      1.214190  
     187A      1.224915   188A      1.234420   189A      1.244926  
     190A      1.246429   191A      1.251853   192A      1.258138  
     193A      1.259213   194A      1.285084   195A      1.291752  
     196A      1.292057   197A      1.307996   198A      1.310423  
     199A      1.317379   200A      1.321646   201A      1.327596  
     202A      1.350209   203A      1.353837   204A      1.383044  
     205A      1.387713   206A      1.390398   207A      1.402514  
     208A      1.419850   209A      1.432121   210A      1.452166  
     211A      1.462821   212A      1.470215   213A      1.475093  
     214A      1.496727   215A      1.498148   216A      1.513723  
     217A      1.523000   218A      1.529000   219A      1.545747  
     220A      1.554753   221A      1.560358   222A      1.569144  
     223A      1.590390   224A      1.603435   225A      1.605943  
     226A      1.629054   227A      1.631410   228A      1.635483  
     229A      1.646033   230A      1.648335   231A      1.660583  
     232A      1.662348   233A      1.673665   234A      1.712651  
     235A      1.719673   236A      1.722691   237A      1.730214  
     238A      1.742635   239A      1.743238   240A      1.757189  
     241A      1.757323   242A      1.760405   243A      1.774508  
     244A      1.794466   245A      1.801217   246A      1.801855  
     247A      1.826567   248A      1.828695   249A      1.848863  
     250A      1.849198   251A      1.863500   252A      1.871668  
     253A      1.873393   254A      1.882834   255A      1.892176  
     256A      1.905411   257A      1.925359   258A      1.933560  
     259A      1.944836   260A      1.949169   261A      1.965923  
     262A      1.979214   263A      1.981666   264A      1.991851  
     265A      2.001600   266A      2.007204   267A      2.023601  
     268A      2.033860   269A      2.042466   270A      2.046628  
     271A      2.056604   272A      2.067375   273A      2.072705  
     274A      2.091672   275A      2.099169   276A      2.111492  
     277A      2.117032   278A      2.147101   279A      2.178635  
     280A      2.179377   281A      2.212894   282A      2.217775  
     283A      2.233878   284A      2.247537   285A      2.251182  
     286A      2.274202   287A      2.284673   288A      2.303243  
     289A      2.315681   290A      2.317843   291A      2.323533  
     292A      2.336633   293A      2.358192   294A      2.365808  
     295A      2.384782   296A      2.387371   297A      2.403496  
     298A      2.434597   299A      2.439626   300A      2.478460  
     301A      2.488515   302A      2.498388   303A      2.509375  
     304A      2.524383   305A      2.560796   306A      2.564620  
     307A      2.576617   308A      2.586769   309A      2.612910  
     310A      2.625336   311A      2.672053   312A      2.691293  
     313A      2.741794   314A      2.837895   315A      2.870305  
     316A      2.901455   317A      3.071591   318A      3.197011  
     319A      3.259145   320A      3.285766   321A      3.336947  
     322A      3.377624   323A      3.415230   324A      3.434254  
     325A      3.449398   326A      3.475791   327A      3.497524  
     328A      3.503944   329A      3.511073   330A      3.555871  
     331A      3.564532   332A      3.571490   333A      3.617921  
     334A      3.636260   335A      3.655422   336A      3.659130  
     337A      3.676281   338A      3.692221   339A      3.707596  
     340A      3.708997   341A      3.720787   342A      3.734582  
     343A      3.736458   344A      3.742720   345A      3.748586  
     346A      3.773435   347A      3.818676   348A      3.825701  
     349A      3.827987   350A      3.837290   351A      3.851075  
     352A      3.854411   353A      3.869574   354A      3.870113  
     355A      3.886556   356A      3.908895   357A      3.909125  
     358A      3.922543   359A      3.946385   360A      3.947068  
     361A      3.977561   362A      3.981404   363A      3.988984  
     364A      3.998734   365A      4.017210   366A      4.031844  
     367A      4.037217   368A      4.052773   369A      4.053908  
     370A      4.067751   371A      4.079922   372A      4.090588  
     373A      4.109509   374A      4.118247   375A      4.119910  
     376A      4.137852   377A      4.164732   378A      4.171516  
     379A      4.181773   380A      4.189709   381A      4.202582  
     382A      4.210013   383A      4.230509   384A      4.248324  
     385A      4.264987   386A      4.279162   387A      4.284806  
     388A      4.320806   389A      4.323670   390A      4.328272  
     391A      4.351741   392A      4.367584   393A      4.393400  
     394A      4.412229   395A      4.420089   396A      4.438648  
     397A      4.447508   398A      4.461769   399A      4.511372  
     400A      4.554220   401A      4.570262   402A      4.600599  
     403A      4.627779   404A      4.636836   405A      4.660994  
     406A      4.672548   407A      4.698327   408A      4.709387  
     409A      4.716197   410A      4.736731   411A      4.746591  
     412A      4.754794   413A      4.793093   414A      4.796549  
     415A      4.816313   416A      4.826962   417A      4.835493  
     418A      4.873413   419A      4.886204   420A      4.897279  
     421A      4.903656   422A      4.930252   423A      4.932856  
     424A      4.969269   425A      4.969389   426A      4.982233  
     427A      4.992177   428A      5.031189   429A      5.058972  
     430A      5.063672   431A      5.105933   432A      5.137588  
     433A      5.148663   434A      5.163390   435A      5.179390  
     436A      5.196901   437A      5.212783   438A      5.222389  
     439A      5.248087   440A      5.267142   441A      5.268771  
     442A      5.275387   443A      5.287450   444A      5.291307  
     445A      5.340451   446A      5.353901   447A      5.377832  
     448A      5.394793   449A      5.408518   450A      5.429743  
     451A      5.433814   452A      5.442516   453A      5.455509  
     454A      5.489523   455A      5.521030   456A      5.557266  
     457A      5.563809   458A      5.568515   459A      5.598392  
     460A      5.615269   461A      5.621228   462A      5.646867  
     463A      5.660852   464A      5.692883   465A      5.699257  
     466A      5.709930   467A      5.722450   468A      5.734525  
     469A      5.773012   470A      5.834760   471A      5.838171  
     472A      5.885362   473A      5.918127   474A      5.922688  
     475A      5.928764   476A      5.998750   477A      6.007714  
     478A      6.058436   479A      6.088891   480A      6.117882  
     481A      6.122537   482A      6.159435   483A      6.236408  
     484A      6.265516   485A      6.293332   486A      6.309273  
     487A      6.328975   488A      6.335464   489A      6.359276  
     490A      6.366487   491A      6.403564   492A      6.564157  
     493A      6.643442   494A      6.667615   495A      6.822204  
     496A      6.836552   497A      6.894393   498A      6.914024  
     499A      6.960817   500A      7.043254   501A      7.045896  
     502A     17.914638   503A     18.070664   504A     18.170912  
     505A     18.894216   506A     19.480121  

    Final Occupation by Irrep:
              A 
    DOCC [    21 ]

  Energy converged.

  @DF-RHF Final Energy:  -196.40013892265998

   => Energetics <=

    Nuclear Repulsion Energy =            193.2288544291399432
    One-Electron Energy =                -646.3067673500815999
    Two-Electron Energy =                 256.6777739982816229
    DFT Exchange-Correlation Energy =       0.0000000000000000
    Empirical Dispersion Energy =           0.0000000000000000
    PCM Polarization Energy =               0.0000000000000000
    EFP Energy =                            0.0000000000000000
    Total Energy =                       -196.4001389226600622


  Saving occupied orbitals to File 180.

*** tstop() called on wr37 at Wed Sep 21 11:03:18 2016
Module time:
	user time   =     255.89 seconds =       4.26 minutes
	system time =       4.62 seconds =       0.08 minutes
	total time  =         24 seconds =       0.40 minutes
Total time:
	user time   =     255.89 seconds =       4.26 minutes
	system time =       4.62 seconds =       0.08 minutes
	total time  =         24 seconds =       0.40 minutes


Properties will be evaluated at   0.000000,   0.000000,   0.000000 Bohr

Properties computed using the SCF density matrix

  Nuclear Dipole Moment: (a.u.)
     X:    -0.0011      Y:     1.0948      Z:     0.0151

  Electronic Dipole Moment: (a.u.)
     X:     0.0014      Y:    -1.1186      Z:    -0.0156

  Dipole Moment: (a.u.)
     X:     0.0003      Y:    -0.0238      Z:    -0.0004     Total:     0.0238

  Dipole Moment: (Debye)
     X:     0.0008      Y:    -0.0605      Z:    -0.0011     Total:     0.0606


  //>>>>>>>>>>>>>>>>>>>>>>>>>>>>>>>>>>>//
  //               DFMP2               //
  //<<<<<<<<<<<<<<<<<<<<<<<<<<<<<<<<<<<//


*** tstart() called on wr37
*** at Wed Sep 21 11:03:18 2016


*** tstop() called on wr37 at Wed Sep 21 11:03:18 2016
Module time:
	user time   =       3.29 seconds =       0.05 minutes
	system time =       0.20 seconds =       0.00 minutes
	total time  =          0 seconds =       0.00 minutes
Total time:
	user time   =     259.25 seconds =       4.32 minutes
	system time =       4.82 seconds =       0.08 minutes
	total time  =         24 seconds =       0.40 minutes
	 --------------------------------------------------------
	                          DF-MP2                         
	      2nd-Order Density-Fitted Moller-Plesset Theory     
	              RMP2 Wavefunction,  12 Threads             
	                                                         
	        Rob Parrish, Justin Turney, Andy Simmonett,      
	           Ed Hohenstein, and C. David Sherrill          
	 --------------------------------------------------------

   => Auxiliary Basis Set <=

  Basis Set: 
    Number of shells: 308
    Number of basis function: 1082
    Number of Cartesian functions: 1340
    Spherical Harmonics?: true
    Max angular momentum: 4

	 --------------------------------------------------------
	                 NBF =   506, NAUX =  1082
	 --------------------------------------------------------
	   CLASS    FOCC     OCC    AOCC    AVIR     VIR    FVIR
	   PAIRS       5      21      16     485     485       0
	 --------------------------------------------------------

DGAS Warning! /src/lib/libfock/apps.cc:80 is not currently checking restricted

         ------------------------------------------------------------
                                     CPHF                           
                                  Rob Parrish                       
         ------------------------------------------------------------

  ==> Geometry <==

    Molecular point group: c1
    Full point group: C1

    Geometry (in Angstrom), charge = 0, multiplicity = 1:

       Center              X                  Y                   Z               Mass       
    ------------   -----------------  -----------------  -----------------  -----------------
           C          1.779819571074     0.716984192318     0.279928800834    12.000000000000
           H          2.167819571074     0.175984192318     1.141928800834     1.007825032070
           H          1.098819571074     1.481984192318     0.647928800834     1.007825032070
           H          2.613819571074     1.221984192318    -0.203071199166     1.007825032070
           C         -1.778180428926     0.728984192318    -0.259071199166    12.000000000000
           H         -2.611180428926     1.222984192318     0.236928800834     1.007825032070
           H         -1.096180428926     1.501984192318    -0.606071199166     1.007825032070
           H         -2.168180428926     0.212984192318    -1.136071199166     1.007825032070
           C         -1.085180428926    -0.248015807682     0.672928800834    12.000000000000
           H         -1.823180428926    -0.933015807682     1.091928800834     1.007825032070
           H         -0.659180428926     0.291984192318     1.518928800834     1.007825032070
           C         -0.001180428926    -1.064015807682    -0.015071199166    12.000000000000
           H          0.462819571074    -1.728015807682     0.716928800834     1.007825032070
           H         -0.467180428926    -1.706015807682    -0.766071199166     1.007825032070
           C          1.084819571074    -0.232015807682    -0.680071199166    12.000000000000
           H          1.820819571074    -0.907015807682    -1.117071199166     1.007825032070
           H          0.659819571074     0.331984192318    -1.510071199166     1.007825032070

  Nuclear repulsion =  193.228854429139943
  Reference energy  = -196.400138922659977

  ==> Basis Set <==

  Basis Set: AUG-CC-PVTZ
    Number of shells: 178
    Number of basis function: 506
    Number of Cartesian functions: 575
    Spherical Harmonics?: true
    Max angular momentum: 3

  ==> CGRSolver (by Rob Parrish) <==

   Number of roots    =         1
   Preconditioning    =    JACOBI
   Convergence cutoff =     1E-06
   Maximum iterations =       100

  ==> CPHFRHamiltonian (by Rob Parrish) <== 

  ==> DFJK: Density-Fitted J/K Matrices <==

    J tasked:                  Yes
    K tasked:                  Yes
    wK tasked:                  No
    OpenMP threads:             12
    Integrals threads:          12
    Memory (MB):             42915
    Algorithm:                Core
    Integral Cache:           NONE
    Schwarz Cutoff:          1E-12
    Fitting Condition:       1E-12

   => Auxiliary Basis Set <=

  Basis Set: 
    Number of shells: 318
    Number of basis function: 1072
    Number of Cartesian functions: 1315
    Spherical Harmonics?: true
    Max angular momentum: 4

  ==> CPHF Iterations <==

  => Iterations <=

             Iter  Converged  Remaining    Residual
  CGR           1          0          1   9.585E-02
  CGR           2          0          1   1.370E-02
  CGR           3          0          1   3.844E-03
  CGR           4          0          1   8.439E-04
  CGR           5          0          1   2.034E-04
  CGR           6          0          1   4.135E-05
  CGR           7          0          1   1.098E-05
  CGR           8          0          1   2.641E-06
  CGR           9          1          0   6.328E-07

    CGRSolver converged.

  ==> DFCorrGrad: Density-Fitted Correlated Gradients <==

    OpenMP threads:             12
    Integrals threads:          12
    Memory (MB):             42915
    Schwarz Cutoff:          0E+00
    Fitting Condition:       1E-12

   => Auxiliary Basis Set <=

  Basis Set: 
    Number of shells: 318
    Number of basis function: 1072
    Number of Cartesian functions: 1315
    Spherical Harmonics?: true
    Max angular momentum: 4

	-----------------------------------------------------------
	 ==================> DF-MP2 Energies <==================== 
	-----------------------------------------------------------
	 Reference Energy          =    -196.4001389226599770 [Eh]
	 Singles Energy            =      -0.0000000000000001 [Eh]
	 Same-Spin Energy          =      -0.1961393602897278 [Eh]
	 Opposite-Spin Energy      =      -0.7125260779405123 [Eh]
	 Correlation Energy        =      -0.9086654382302402 [Eh]
	 Total Energy              =    -197.3088043608902069 [Eh]
	-----------------------------------------------------------
	 ================> DF-SCS-MP2 Energies <================== 
	-----------------------------------------------------------
	 SCS Same-Spin Scale       =       0.3333333333333333 [-]
	 SCS Opposite-Spin Scale   =       1.2000000000000000 [-]
	 SCS Same-Spin Energy      =      -0.0653797867632426 [Eh]
	 SCS Opposite-Spin Energy  =      -0.8550312935286147 [Eh]
	 SCS Correlation Energy    =      -0.9204110802918575 [Eh]
	 SCS Total Energy          =    -197.3205500029518475 [Eh]
	-----------------------------------------------------------


  -Total Gradient:
     Atom            X                  Y                   Z
    ------   -----------------  -----------------  -----------------
       1       -0.000970445999    -0.001368294587    -0.000684472398
       2       -0.000756367150     0.000529084354    -0.001278933194
       3        0.000453921936    -0.000847802225    -0.000505025613
       4       -0.000895940257    -0.000692539280     0.000184949322
       5        0.001480128571    -0.001142695170     0.001207119332
       6        0.000848229760    -0.000592732192    -0.000340370518
       7       -0.000764963783    -0.001132824714     0.000628333758
       8        0.000615001236     0.000330391804     0.001045279109
       9        0.000810259424     0.000363664151    -0.002669520239
      10        0.000692633106     0.000635070347    -0.000568877735
      11       -0.000319386614    -0.000616085007    -0.001108046428
      12        0.000243976678     0.002712385453     0.000276926148
      13       -0.000543478009     0.001001151806    -0.000922922565
      14        0.000420542558     0.000773878492     0.000672184426
      15       -0.000718951896     0.000155928362     0.001941345190
      16       -0.000936506446     0.000752672331     0.000766073941
      17        0.000341346883    -0.000861253925     0.001355957464


			-----------------------------------------
			 OPTKING 2.0: for geometry optimizations 
			  - R.A. King,  Bethel University        
			-----------------------------------------

	Internal coordinates to be generated automatically.
	Detected frag 1 with atoms:  1 2 3 4 5 6 7 8 9 10 11 12 13 14 15 16 17
	---Fragment 1 Bond Connectivity---
	 1 : 2 3 4 15
	 2 : 1
	 3 : 1
	 4 : 1
	 5 : 6 7 8 9
	 6 : 5
	 7 : 5
	 8 : 5
	 9 : 5 10 11 12
	 10 : 9
	 11 : 9
	 12 : 9 13 14 15
	 13 : 12
	 14 : 12
	 15 : 1 12 16 17
	 16 : 15
	 17 : 15

	---Fragment 1 Geometry and Gradient---
	 C           3.3633715553        1.3549037651        0.5289887703
	 H           4.0965852948        0.3325619272        2.1579326968
	 H           2.0764680588        2.8005442567        1.2244079872
	 H           4.9394031501        2.3092154622       -0.3837489519
	 C          -3.3602740255        1.3775804787       -0.4895736153
	 H          -4.9344158942        2.3111051883        0.4477305466
	 H          -2.0714808029        2.8383387794       -1.1453085835
	 H          -4.0972672174        0.4024817941       -2.1468634339
	 C          -2.0506938154       -0.4686819531        1.2716511405
	 H          -3.4453117015       -1.7631443542        2.0634463902
	 H          -1.2456704828        0.5517701586        2.8703594489
	 C          -0.0022306874       -2.0106984776       -0.0284804389
	 H           0.8746022383       -3.2654766298        1.3547990904
	 H          -0.8828430653       -3.2239026549       -1.4476647647
	 C           2.0500118929       -0.4384463350       -1.2851483173
	 H           3.4408503267       -1.7140114747       -2.1109586374
	 H           1.2468782864        0.6273592039       -2.8536210076
	            -0.0009704460       -0.0013682946       -0.0006844724
	            -0.0007563672        0.0005290844       -0.0012789332
	             0.0004539219       -0.0008478022       -0.0005050256
	            -0.0008959403       -0.0006925393        0.0001849493
	             0.0014801286       -0.0011426952        0.0012071193
	             0.0008482298       -0.0005927322       -0.0003403705
	            -0.0007649638       -0.0011328247        0.0006283338
	             0.0006150012        0.0003303918        0.0010452791
	             0.0008102594        0.0003636642       -0.0026695202
	             0.0006926331        0.0006350703       -0.0005688777
	            -0.0003193866       -0.0006160850       -0.0011080464
	             0.0002439767        0.0027123855        0.0002769261
	            -0.0005434780        0.0010011518       -0.0009229226
	             0.0004205426        0.0007738785        0.0006721844
	            -0.0007189519        0.0001559284        0.0019413452
	            -0.0009365064        0.0007526723        0.0007660739
	             0.0003413469       -0.0008612539        0.0013559575

	Previous optimization step data not found.  Starting new optimization.

	---Fragment 1 Intrafragment Coordinates---
	 - Coordinate -           - BOHR/RAD -       - ANG/DEG -
	 R(1,2)           =         2.058214	       1.089160
	 R(1,3)           =         2.056600	       1.088306
	 R(1,4)           =         2.056131	       1.088058
	 R(1,15)          =         2.869166	       1.518297
	 R(5,6)           =         2.056193	       1.088091
	 R(5,7)           =         2.055430	       1.087687
	 R(5,8)           =         2.059268	       1.089718
	 R(5,9)           =         2.868030	       1.517696
	 R(9,10)          =         2.060954	       1.090610
	 R(9,11)          =         2.060401	       1.090317
	 R(9,12)          =         2.874780	       1.521268
	 R(12,13)         =         2.063193	       1.091795
	 R(12,14)         =         2.064322	       1.092392
	 R(12,15)         =         2.874524	       1.521133
	 R(15,16)         =         2.059966	       1.090087
	 R(15,17)         =         2.059386	       1.089780
	 B(1,15,12)       =         1.973884	     113.095228
	 B(1,15,16)       =         1.908636	     109.356809
	 B(1,15,17)       =         1.914098	     109.669760
	 B(2,1,3)         =         1.880158	     107.725103
	 B(2,1,4)         =         1.884736	     107.987422
	 B(2,1,15)        =         1.931589	     110.671888
	 B(3,1,4)         =         1.879148	     107.667258
	 B(3,1,15)        =         1.946285	     111.513927
	 B(4,1,15)        =         1.939374	     111.117921
	 B(5,9,10)        =         1.908443	     109.345733
	 B(5,9,11)        =         1.913532	     109.637295
	 B(5,9,12)        =         1.974623	     113.137538
	 B(6,5,7)         =         1.878418	     107.625437
	 B(6,5,8)         =         1.883733	     107.929946
	 B(6,5,9)         =         1.941099	     111.216801
	 B(7,5,8)         =         1.879868	     107.708489
	 B(7,5,9)         =         1.946685	     111.536820
	 B(8,5,9)         =         1.931371	     110.659410
	 B(9,12,13)       =         1.902691	     109.016192
	 B(9,12,14)       =         1.898834	     108.795192
	 B(9,12,15)       =         1.996603	     114.396941
	 B(10,9,11)       =         1.851843	     106.102814
	 B(10,9,12)       =         1.895501	     108.604207
	 B(11,9,12)       =         1.915764	     109.765174
	 B(12,15,16)      =         1.895054	     108.578604
	 B(12,15,17)      =         1.915168	     109.731026
	 B(13,12,14)      =         1.859591	     106.546697
	 B(13,12,15)      =         1.898992	     108.804243
	 B(14,12,15)      =         1.902292	     108.993324
	 B(16,15,17)      =         1.852980	     106.167909
	 D(1,15,12,9)     =         0.993669	      56.933039
	 D(1,15,12,13)    =        -1.138557	     -65.234522
	 D(1,15,12,14)    =         3.123371	     178.955992
	 D(2,1,15,12)     =         0.948279	      54.332370
	 D(2,1,15,16)     =        -1.165776	     -66.794068
	 D(2,1,15,17)     =         3.092124	     177.165656
	 D(3,1,15,12)     =        -1.144386	     -65.568509
	 D(3,1,15,16)     =         3.024744	     173.305052
	 D(3,1,15,17)     =         0.999459	      57.264776
	 D(4,1,15,12)     =         3.042151	     174.302411
	 D(4,1,15,16)     =         0.928096	      53.175973
	 D(4,1,15,17)     =        -1.097189	     -62.864303
	 D(5,9,12,13)     =         3.123955	     178.989409
	 D(5,9,12,14)     =        -1.137843	     -65.193601
	 D(5,9,12,15)     =         0.993748	      56.937553
	 D(6,5,9,10)      =         0.927076	      53.117543
	 D(6,5,9,11)      =        -1.096412	     -62.819807
	 D(6,5,9,12)      =         3.042058	     174.297065
	 D(7,5,9,10)      =         3.024242	     173.276326
	 D(7,5,9,11)      =         1.000754	      57.338975
	 D(7,5,9,12)      =        -1.143961	     -65.544152
	 D(8,5,9,10)      =        -1.166526	     -66.836999
	 D(8,5,9,11)      =         3.093171	     177.225651
	 D(8,5,9,12)      =         0.948456	      54.342523
	 D(9,12,15,16)    =         3.115388	     178.498594
	 D(9,12,15,17)    =        -1.149583	     -65.866228
	 D(10,9,12,13)    =        -1.036956	     -59.413176
	 D(10,9,12,14)    =         0.984432	      56.403814
	 D(10,9,12,15)    =         3.116023	     178.534967
	 D(11,9,12,13)    =         0.980477	      56.177205
	 D(11,9,12,14)    =         3.001865	     171.994195
	 D(11,9,12,15)    =        -1.149730	     -65.874652
	 D(13,12,15,16)   =         0.983162	      56.331032
	 D(13,12,15,17)   =         3.001377	     171.966210
	 D(14,12,15,16)   =        -1.038095	     -59.478453
	 D(14,12,15,17)   =         0.980120	      56.156725
	 R(1,5)           =         6.800397	       3.598615

	Current energy   :      -197.3088043609

	Generating empirical Hessian (Schlegel '84) for each fragment.
	Taking RFO optimization step.
	Going to follow RFO solution 1.
	Using RFO vector 1.
	Norm of target step-size    0.07059
	Projected energy change by RFO approximation:        -0.0003385978

	Back-transformation to cartesian coordinates...
	Could not converge backtransformation.
	Using first guess instead.

	--- Internal Coordinate Step in ANG or DEG, aJ/ANG or AJ/DEG ---
	 ---------------------------------------------------------------------------
	   Coordinate                Previous        Force       Change         New 
	   ----------                --------       ------       ------       ------
	    1 R(1,2)          =      1.089160     0.012724     0.002405     1.091565
	    2 R(1,3)          =      1.088306     0.008657     0.001654     1.089960
	    3 R(1,4)          =      1.088058     0.008982     0.001690     1.089748
	    4 R(1,15)         =      1.518297     0.026844     0.006395     1.524692
	    5 R(5,6)          =      1.088091     0.008845     0.001661     1.089751
	    6 R(5,7)          =      1.087687     0.012236     0.002296     1.089982
	    7 R(5,8)          =      1.089718     0.010033     0.001904     1.091622
	    8 R(5,9)          =      1.517696     0.029019     0.006838     1.524534
	    9 R(9,10)         =      1.090610     0.008948     0.001657     1.092267
	   10 R(9,11)         =      1.090317     0.010625     0.001965     1.092283
	   11 R(9,12)         =      1.521268     0.029567     0.007157     1.528425
	   12 R(12,13)        =      1.091795     0.012017     0.002229     1.094024
	   13 R(12,14)        =      1.092392     0.009032     0.001680     1.094072
	   14 R(12,15)        =      1.521133     0.030984     0.007454     1.528587
	   15 R(15,16)        =      1.090087     0.011579     0.002144     1.092231
	   16 R(15,17)        =      1.089780     0.013277     0.002452     1.092233
	   17 B(1,15,12)      =    113.095228    -0.000050     0.052220   113.147448
	   18 B(1,15,16)      =    109.356809     0.000030     0.002400   109.359208
	   19 B(1,15,17)      =    109.669760    -0.000008    -0.066596   109.603164
	   20 B(2,1,3)        =    107.725103    -0.000020    -0.080613   107.644490
	   21 B(2,1,4)        =    107.987422    -0.000028    -0.139788   107.847635
	   22 B(2,1,15)       =    110.671888     0.000022     0.100936   110.772823
	   23 B(3,1,4)        =    107.667258    -0.000025    -0.117965   107.549293
	   24 B(3,1,15)       =    111.513927     0.000019     0.096470   111.610398
	   25 B(4,1,15)       =    111.117921     0.000028     0.121703   111.239623
	   26 B(5,9,10)       =    109.345733     0.000035     0.030603   109.376336
	   27 B(5,9,11)       =    109.637295    -0.000000    -0.022319   109.614975
	   28 B(5,9,12)       =    113.137538    -0.000060     0.004488   113.142026
	   29 B(6,5,7)        =    107.625437    -0.000016    -0.081365   107.544072
	   30 B(6,5,8)        =    107.929946    -0.000020    -0.105888   107.824058
	   31 B(6,5,9)        =    111.216801     0.000010     0.032630   111.249432
	   32 B(7,5,8)        =    107.708489    -0.000020    -0.074071   107.634419
	   33 B(7,5,9)        =    111.536820     0.000018     0.091092   111.627913
	   34 B(8,5,9)        =    110.659410     0.000025     0.122601   110.782011
	   35 B(9,12,13)      =    109.016192     0.000017     0.006587   109.022779
	   36 B(9,12,14)      =    108.795192     0.000049     0.014532   108.809724
	   37 B(9,12,15)      =    114.396941    -0.000110     0.007548   114.404489
	   38 B(10,9,11)      =    106.102814    -0.000016    -0.103150   105.999664
	   39 B(10,9,12)      =    108.604207     0.000020     0.041591   108.645799
	   40 B(11,9,12)      =    109.765174     0.000024     0.042226   109.807400
	   41 B(12,15,16)     =    108.578604     0.000020     0.065255   108.643859
	   42 B(12,15,17)     =    109.731026     0.000027     0.080479   109.811505
	   43 B(13,12,14)     =    106.546697    -0.000023    -0.090661   106.456036
	   44 B(13,12,15)     =    108.804243     0.000051     0.026319   108.830562
	   45 B(14,12,15)     =    108.993324     0.000020     0.027727   109.021051
	   46 B(16,15,17)     =    106.167909    -0.000017    -0.145752   106.022157
	   47 D(1,15,12,9)    =     56.933039    -0.000007     0.224633    57.157673
	   48 D(1,15,12,13)   =    -65.234522    -0.000004     0.191152   -65.043370
	   49 D(1,15,12,14)   =    178.955992    -0.000007     0.269511   179.225503
	   50 D(2,1,15,12)    =     54.332370     0.000002     0.593436    54.925806
	   51 D(2,1,15,16)    =    -66.794068    -0.000001     0.473473   -66.320595
	   52 D(2,1,15,17)    =    177.165656     0.000001     0.684927   177.850583
	   53 D(3,1,15,12)    =    -65.568509     0.000002     0.563273   -65.005236
	   54 D(3,1,15,16)    =    173.305052    -0.000001     0.443310   173.748362
	   55 D(3,1,15,17)    =     57.264776     0.000000     0.654765    57.919541
	   56 D(4,1,15,12)    =    174.302411     0.000002     0.564873   174.867284
	   57 D(4,1,15,16)    =     53.175973    -0.000001     0.444910    53.620883
	   58 D(4,1,15,17)    =    -62.864303     0.000000     0.656364   -62.207939
	   59 D(5,9,12,13)    =    178.989409    -0.000007     0.187510   179.176919
	   60 D(5,9,12,14)    =    -65.193601    -0.000004     0.091192   -65.102409
	   61 D(5,9,12,15)    =     56.937553    -0.000007     0.143197    57.080750
	   62 D(6,5,9,10)     =     53.117543    -0.000000     0.498849    53.616393
	   63 D(6,5,9,11)     =    -62.819807    -0.000000     0.618065   -62.201743
	   64 D(6,5,9,12)     =    174.297065     0.000002     0.576789   174.873854
	   65 D(7,5,9,10)     =    173.276326    -0.000001     0.479514   173.755840
	   66 D(7,5,9,11)     =     57.338975    -0.000001     0.598729    57.937704
	   67 D(7,5,9,12)     =    -65.544152     0.000002     0.557453   -64.986699
	   68 D(8,5,9,10)     =    -66.836999     0.000000     0.529014   -66.307985
	   69 D(8,5,9,11)     =    177.225651     0.000000     0.648229   177.873879
	   70 D(8,5,9,12)     =     54.342523     0.000003     0.606953    54.949476
	   71 D(9,12,15,16)   =    178.498594    -0.000003     0.308291   178.806884
	   72 D(9,12,15,17)   =    -65.866228    -0.000002     0.214625   -65.651603
	   73 D(10,9,12,13)   =    -59.413176    -0.000002     0.258894   -59.154282
	   74 D(10,9,12,14)   =     56.403814     0.000000     0.162576    56.566390
	   75 D(10,9,12,15)   =    178.534967    -0.000003     0.214581   178.749549
	   76 D(11,9,12,13)   =     56.177205    -0.000001     0.181994    56.359199
	   77 D(11,9,12,14)   =    171.994195     0.000001     0.085677   172.079871
	   78 D(11,9,12,15)   =    -65.874652    -0.000002     0.137682   -65.736970
	   79 D(13,12,15,16)  =     56.331032     0.000000     0.274810    56.605842
	   80 D(13,12,15,17)  =    171.966210     0.000002     0.181144   172.147355
	   81 D(14,12,15,16)  =    -59.478453    -0.000002     0.353168   -59.125285
	   82 D(14,12,15,17)  =     56.156725    -0.000001     0.259502    56.416227
	   83 R(1,5)          =      3.598615     0.010059     0.023716     3.622330
	 ---------------------------------------------------------------------------

  ==> Convergence Check <==

  Measures of convergence in internal coordinates in au.
  Criteria marked as inactive (o), active & met (*), and active & unmet ( ).
  --------------------------------------------------------------------------------------------- ~
   Step     Total Energy     Delta E     MAX Force     RMS Force      MAX Disp      RMS Disp    ~
  --------------------------------------------------------------------------------------------- ~
    Convergence Criteria             o    2.00e-06 *    1.00e-06 *    6.00e-06 *    4.00e-06 *  ~
  --------------------------------------------------------------------------------------------- ~
      1    -197.30880436   -1.97e+02 o    3.76e-03      9.74e-04      4.48e-02      7.75e-03    ~
  ---------------------------------------------------------------------------------------------

	Writing optimization data to binary file.
	Structure for next step:
	Cartesian Geometry (in Angstrom)
	    C     1.7914415421   0.7179076673   0.2831231694
	    H     2.1904747916   0.1735404303   1.1409991065
	    H     1.1101319390   1.4792798856   0.6627846273
	    H     2.6211610592   1.2317525964  -0.2017263447
	    C    -1.7894567360   0.7298907902  -0.2630470072
	    H    -2.6182530655   1.2321044387   0.2353867106
	    H    -1.1060778175   1.4999272354  -0.6209548603
	    H    -2.1895885890   0.2110667630  -1.1361757733
	    C    -1.0917828354  -0.2486586719   0.6749807353
	    H    -1.8296216116  -0.9343898742   1.0973716146
	    H    -0.6665409338   0.2948613718   1.5216426409
	    C    -0.0014832894  -1.0682431836  -0.0146650011
	    H     0.4622782881  -1.7339012035   0.7193059857
	    H    -0.4668352396  -1.7123235194  -0.7667299265
	    C     1.0905083825  -0.2320750952  -0.6817138313
	    H     1.8264708221  -0.9074022973  -1.1235978686
	    H     0.6661060014   0.3363939356  -1.5121943631
			--------------------------
			 OPTKING Finished Execution 
			--------------------------

    Structure for next step:
    Molecular point group: c1
    Full point group: C1

    Geometry (in Angstrom), charge = 0, multiplicity = 1:

    C            1.791574311890     0.718380241976     0.283117976103
    H            2.190607561372     0.174013004947     1.140993913228
    H            1.110264708849     1.479752460259     0.662779434019
    H            2.621293829048     1.232225171100    -0.201731538030
    C           -1.789323966167     0.730363364822    -0.263052200451
    H           -2.618120295666     1.232577013362     0.235381517271
    H           -1.105945047674     1.500399810065    -0.620960053602
    H           -2.189455819220     0.211539337672    -1.136180966595
    C           -1.091650065588    -0.248186097287     0.674975542002
    H           -1.829488841763    -0.933917299522     1.097366421328
    H           -0.666408164010     0.295333946476     1.521637447658
    C           -0.001350519601    -1.067770608984    -0.014670194346
    H            0.462411057885    -1.733428628818     0.719300792418
    H           -0.466702469825    -1.711850944736    -0.766735119759
    C            1.090641152306    -0.231602520517    -0.681719024594
    H            1.826603591887    -0.906929722606    -1.123603061882
    H            0.666238771239     0.336866510294    -1.512199556361

gradient() will perform analytic gradient computation.
    SCF Algorithm Type (re)set to DF.

*** tstart() called on wr37
*** at Wed Sep 21 11:04:52 2016


         ---------------------------------------------------------
                                   SCF
            by Justin Turney, Rob Parrish, and Andy Simmonett
                              RHF Reference
                       12 Threads,  60000 MiB Core
         ---------------------------------------------------------

  ==> Geometry <==

    Molecular point group: c1
    Full point group: C1

    Geometry (in Angstrom), charge = 0, multiplicity = 1:

       Center              X                  Y                   Z               Mass       
    ------------   -----------------  -----------------  -----------------  -----------------
           C          1.791574311890     0.718380241976     0.283117976103    12.000000000000
           H          2.190607561372     0.174013004947     1.140993913228     1.007825032070
           H          1.110264708849     1.479752460259     0.662779434019     1.007825032070
           H          2.621293829048     1.232225171100    -0.201731538030     1.007825032070
           C         -1.789323966167     0.730363364822    -0.263052200451    12.000000000000
           H         -2.618120295666     1.232577013362     0.235381517271     1.007825032070
           H         -1.105945047674     1.500399810065    -0.620960053602     1.007825032070
           H         -2.189455819220     0.211539337672    -1.136180966595     1.007825032070
           C         -1.091650065588    -0.248186097287     0.674975542002    12.000000000000
           H         -1.829488841763    -0.933917299522     1.097366421328     1.007825032070
           H         -0.666408164010     0.295333946476     1.521637447658     1.007825032070
           C         -0.001350519601    -1.067770608984    -0.014670194346    12.000000000000
           H          0.462411057885    -1.733428628818     0.719300792418     1.007825032070
           H         -0.466702469825    -1.711850944736    -0.766735119759     1.007825032070
           C          1.090641152306    -0.231602520517    -0.681719024594    12.000000000000
           H          1.826603591887    -0.906929722606    -1.123603061882     1.007825032070
           H          0.666238771239     0.336866510294    -1.512199556361     1.007825032070

  Running in c1 symmetry.

  Rotational constants: A =      0.24992  B =      0.10269  C =      0.09209 [cm^-1]
  Rotational constants: A =   7492.39565  B =   3078.43458  C =   2760.90786 [MHz]
  Nuclear repulsion =  192.434876235505783

  Charge       = 0
  Multiplicity = 1
  Electrons    = 42
  Nalpha       = 21
  Nbeta        = 21

  ==> Algorithm <==

  SCF Algorithm Type is DF.
  DIIS enabled.
  MOM disabled.
  Fractional occupation disabled.
  Guess Type is READ.
  Energy threshold   = 1.00e-10
  Density threshold  = 1.00e-10
  Integral threshold = 0.00e+00

  ==> Primary Basis <==

  Basis Set: AUG-CC-PVTZ
    Number of shells: 178
    Number of basis function: 506
    Number of Cartesian functions: 575
    Spherical Harmonics?: true
    Max angular momentum: 3

  ==> Pre-Iterations <==

   -------------------------------------------------------
    Irrep   Nso     Nmo     Nalpha   Nbeta   Ndocc  Nsocc
   -------------------------------------------------------
     A        506     506       0       0       0       0
   -------------------------------------------------------
    Total     506     506      21      21      21       0
   -------------------------------------------------------

  ==> Integral Setup <==

  ==> DFJK: Density-Fitted J/K Matrices <==

    J tasked:                  Yes
    K tasked:                  Yes
    wK tasked:                  No
    OpenMP threads:             12
    Integrals threads:          12
    Memory (MB):             42915
    Algorithm:                Core
    Integral Cache:           NONE
    Schwarz Cutoff:          1E-12
    Fitting Condition:       1E-12

   => Auxiliary Basis Set <=

  Basis Set: 
    Number of shells: 318
    Number of basis function: 1072
    Number of Cartesian functions: 1315
    Spherical Harmonics?: true
    Max angular momentum: 4

  Minimum eigenvalue in the overlap matrix is 5.3383558090E-06.
  Using Symmetric Orthogonalization.
  SCF Guess: Reading in previously saved MOs, projecting if necessary.

  Using orbitals from previous SCF, no projection.
  Recomputing DOCC and SOCC from number of alpha and beta electrons from previous calculation.
              A 
    DOCC [    21 ]

  ==> Iterations <==

                           Total Energy        Delta E     RMS |[F,P]|

   @DF-RHF iter   0:  -196.37356637100157   -1.96374e+02   6.65375e-05 
   @DF-RHF iter   1:  -196.40022713794764   -2.66608e-02   1.82063e-05 
   @DF-RHF iter   2:  -196.40027030164987   -4.31637e-05   9.98477e-06 DIIS
   @DF-RHF iter   3:  -196.40028305144574   -1.27498e-05   1.45704e-06 DIIS
   @DF-RHF iter   4:  -196.40028382100019   -7.69554e-07   2.76175e-07 DIIS
   @DF-RHF iter   5:  -196.40028384644421   -2.54440e-08   7.31716e-08 DIIS
   @DF-RHF iter   6:  -196.40028384754334   -1.09912e-09   1.64206e-08 DIIS
   @DF-RHF iter   7:  -196.40028384760495   -6.16183e-11   2.90516e-09 DIIS
   @DF-RHF iter   8:  -196.40028384760717   -2.21689e-12   7.97042e-10 DIIS
   @DF-RHF iter   9:  -196.40028384760751   -3.41061e-13   2.40583e-10 DIIS
   @DF-RHF iter  10:  -196.40028384760802   -5.11591e-13   5.33325e-11 DIIS

  ==> Post-Iterations <==

    Orbital Energies (a.u.)
    -----------------------

    Doubly Occupied:                                                      

       1A    -11.212521     2A    -11.212395     3A    -11.211011  
       4A    -11.207180     5A    -11.207177     6A     -1.082302  
       7A     -1.006970     8A     -0.921667     9A     -0.842240  
      10A     -0.757162    11A     -0.636522    12A     -0.630997  
      13A     -0.572422    14A     -0.558993    15A     -0.554116  
      16A     -0.512463    17A     -0.499279    18A     -0.489892  
      19A     -0.455330    20A     -0.449001    21A     -0.447055  

    Virtual:                                                              

      22A      0.031181    23A      0.036411    24A      0.037420  
      25A      0.038924    26A      0.055547    27A      0.056635  
      28A      0.057340    29A      0.058108    30A      0.060268  
      31A      0.079825    32A      0.080932    33A      0.088224  
      34A      0.117137    35A      0.120847    36A      0.122830  
      37A      0.125010    38A      0.126348    39A      0.130054  
      40A      0.132262    41A      0.136857    42A      0.151701  
      43A      0.152314    44A      0.152574    45A      0.153467  
      46A      0.161593    47A      0.167181    48A      0.175078  
      49A      0.181161    50A      0.202031    51A      0.202927  
      52A      0.216836    53A      0.221450    54A      0.247089  
      55A      0.253131    56A      0.255491    57A      0.275921  
      58A      0.283948    59A      0.287177    60A      0.294915  
      61A      0.301324    62A      0.310147    63A      0.311772  
      64A      0.323815    65A      0.326164    66A      0.333636  
      67A      0.337118    68A      0.342280    69A      0.342617  
      70A      0.346092    71A      0.358831    72A      0.359042  
      73A      0.366350    74A      0.366784    75A      0.372094  
      76A      0.378292    77A      0.382934    78A      0.390802  
      79A      0.392294    80A      0.397644    81A      0.399756  
      82A      0.409308    83A      0.422781    84A      0.425378  
      85A      0.436366    86A      0.439436    87A      0.452364  
      88A      0.457907    89A      0.460330    90A      0.460551  
      91A      0.472676    92A      0.474585    93A      0.478911  
      94A      0.481322    95A      0.489614    96A      0.495344  
      97A      0.499986    98A      0.502336    99A      0.506072  
     100A      0.515392   101A      0.518754   102A      0.524627  
     103A      0.526391   104A      0.528458   105A      0.538852  
     106A      0.543772   107A      0.558691   108A      0.567379  
     109A      0.573394   110A      0.584043   111A      0.585736  
     112A      0.594889   113A      0.596197   114A      0.600646  
     115A      0.609181   116A      0.615408   117A      0.627872  
     118A      0.630535   119A      0.647914   120A      0.651557  
     121A      0.651840   122A      0.653363   123A      0.663784  
     124A      0.684212   125A      0.691780   126A      0.695907  
     127A      0.704951   128A      0.714480   129A      0.725462  
     130A      0.729717   131A      0.775903   132A      0.780265  
     133A      0.797448   134A      0.808426   135A      0.818160  
     136A      0.828368   137A      0.836244   138A      0.838472  
     139A      0.854525   140A      0.855106   141A      0.858666  
     142A      0.875484   143A      0.884227   144A      0.897995  
     145A      0.900750   146A      0.906232   147A      0.911114  
     148A      0.917573   149A      0.924326   150A      0.930608  
     151A      0.932251   152A      0.944001   153A      0.954853  
     154A      0.968138   155A      0.969835   156A      0.973977  
     157A      0.978780   158A      0.992152   159A      0.995747  
     160A      0.996988   161A      1.008848   162A      1.017275  
     163A      1.019476   164A      1.032996   165A      1.044929  
     166A      1.051453   167A      1.054633   168A      1.059192  
     169A      1.064220   170A      1.085098   171A      1.098701  
     172A      1.102439   173A      1.106590   174A      1.113248  
     175A      1.124514   176A      1.140946   177A      1.151879  
     178A      1.154742   179A      1.162261   180A      1.172470  
     181A      1.175467   182A      1.186083   183A      1.191773  
     184A      1.194582   185A      1.203594   186A      1.212680  
     187A      1.224192   188A      1.232001   189A      1.243740  
     190A      1.243998   191A      1.249429   192A      1.254380  
     193A      1.257818   194A      1.281820   195A      1.289150  
     196A      1.290949   197A      1.305779   198A      1.308406  
     199A      1.315831   200A      1.319142   201A      1.325774  
     202A      1.348420   203A      1.351202   204A      1.381004  
     205A      1.385533   206A      1.391563   207A      1.400162  
     208A      1.416959   209A      1.431221   210A      1.450772  
     211A      1.457352   212A      1.467069   213A      1.470938  
     214A      1.494325   215A      1.494732   216A      1.510208  
     217A      1.517325   218A      1.526967   219A      1.543093  
     220A      1.550671   221A      1.557637   222A      1.565496  
     223A      1.587455   224A      1.600457   225A      1.602976  
     226A      1.623611   227A      1.629290   228A      1.634111  
     229A      1.639565   230A      1.648074   231A      1.656827  
     232A      1.660387   233A      1.673198   234A      1.710203  
     235A      1.717409   236A      1.718844   237A      1.727275  
     238A      1.740156   239A      1.741589   240A      1.756071  
     241A      1.756430   242A      1.758437   243A      1.775727  
     244A      1.792571   245A      1.798587   246A      1.799784  
     247A      1.824100   248A      1.827507   249A      1.845424  
     250A      1.847530   251A      1.859996   252A      1.868419  
     253A      1.870068   254A      1.883130   255A      1.890767  
     256A      1.900454   257A      1.923965   258A      1.931074  
     259A      1.941554   260A      1.944260   261A      1.962282  
     262A      1.976521   263A      1.977396   264A      1.987497  
     265A      1.997132   266A      2.002119   267A      2.020209  
     268A      2.029193   269A      2.040183   270A      2.043506  
     271A      2.053178   272A      2.063235   273A      2.067670  
     274A      2.088132   275A      2.096747   276A      2.106273  
     277A      2.112095   278A      2.142295   279A      2.175401  
     280A      2.176652   281A      2.207287   282A      2.215675  
     283A      2.229193   284A      2.242940   285A      2.250214  
     286A      2.271900   287A      2.282393   288A      2.302032  
     289A      2.312451   290A      2.314612   291A      2.318696  
     292A      2.334649   293A      2.355501   294A      2.363526  
     295A      2.379344   296A      2.382596   297A      2.397633  
     298A      2.431422   299A      2.433905   300A      2.474054  
     301A      2.486560   302A      2.493887   303A      2.503613  
     304A      2.525819   305A      2.555828   306A      2.559319  
     307A      2.573170   308A      2.583732   309A      2.604785  
     310A      2.625128   311A      2.668052   312A      2.687911  
     313A      2.736091   314A      2.831416   315A      2.862994  
     316A      2.891279   317A      3.061556   318A      3.185133  
     319A      3.249305   320A      3.277581   321A      3.332086  
     322A      3.371633   323A      3.408658   324A      3.429300  
     325A      3.448303   326A      3.475704   327A      3.495717  
     328A      3.499877   329A      3.507641   330A      3.555162  
     331A      3.562879   332A      3.569200   333A      3.613670  
     334A      3.632500   335A      3.652067   336A      3.654984  
     337A      3.673888   338A      3.688320   339A      3.706901  
     340A      3.709867   341A      3.719626   342A      3.731809  
     343A      3.734336   344A      3.741253   345A      3.745858  
     346A      3.767733   347A      3.814985   348A      3.820946  
     349A      3.827176   350A      3.835838   351A      3.849223  
     352A      3.851596   353A      3.866975   354A      3.868076  
     355A      3.881244   356A      3.903634   357A      3.905998  
     358A      3.916335   359A      3.941785   360A      3.946300  
     361A      3.973680   362A      3.976902   363A      3.983794  
     364A      3.994217   365A      4.010985   366A      4.030688  
     367A      4.032824   368A      4.047212   369A      4.048351  
     370A      4.060444   371A      4.076729   372A      4.086389  
     373A      4.100325   374A      4.112793   375A      4.115440  
     376A      4.131519   377A      4.156617   378A      4.163509  
     379A      4.177353   380A      4.179322   381A      4.194037  
     382A      4.203518   383A      4.225147   384A      4.240886  
     385A      4.256608   386A      4.277188   387A      4.280696  
     388A      4.313460   389A      4.320572   390A      4.321346  
     391A      4.347447   392A      4.362066   393A      4.389156  
     394A      4.403311   395A      4.410361   396A      4.430451  
     397A      4.436732   398A      4.451168   399A      4.504612  
     400A      4.545596   401A      4.563275   402A      4.593126  
     403A      4.620145   404A      4.629843   405A      4.650502  
     406A      4.663918   407A      4.692701   408A      4.697373  
     409A      4.708450   410A      4.728927   411A      4.739305  
     412A      4.743710   413A      4.782912   414A      4.784808  
     415A      4.806561   416A      4.817689   417A      4.827734  
     418A      4.869214   419A      4.879327   420A      4.888003  
     421A      4.899131   422A      4.921720   423A      4.924949  
     424A      4.959204   425A      4.960805   426A      4.976677  
     427A      4.982869   428A      5.026529   429A      5.048182  
     430A      5.057027   431A      5.099037   432A      5.129506  
     433A      5.138768   434A      5.152491   435A      5.170710  
     436A      5.189715   437A      5.203429   438A      5.209999  
     439A      5.236454   440A      5.258429   441A      5.260082  
     442A      5.265682   443A      5.276164   444A      5.281389  
     445A      5.330939   446A      5.342218   447A      5.370027  
     448A      5.385235   449A      5.399900   450A      5.418185  
     451A      5.423947   452A      5.431485   453A      5.449965  
     454A      5.481306   455A      5.516061   456A      5.547144  
     457A      5.555130   458A      5.556252   459A      5.590763  
     460A      5.604422   461A      5.611361   462A      5.634341  
     463A      5.648554   464A      5.679319   465A      5.688190  
     466A      5.700482   467A      5.710291   468A      5.722015  
     469A      5.758788   470A      5.820313   471A      5.829139  
     472A      5.869771   473A      5.900878   474A      5.902308  
     475A      5.912237   476A      5.983436   477A      5.991982  
     478A      6.043649   479A      6.070696   480A      6.106403  
     481A      6.109925   482A      6.146768   483A      6.221206  
     484A      6.254839   485A      6.281798   486A      6.293222  
     487A      6.311955   488A      6.320697   489A      6.343146  
     490A      6.349389   491A      6.386767   492A      6.546833  
     493A      6.631410   494A      6.656798   495A      6.820304  
     496A      6.834071   497A      6.891455   498A      6.909538  
     499A      6.956607   500A      7.034591   501A      7.040069  
     502A     17.774740   503A     17.921089   504A     18.042577  
     505A     18.796668   506A     19.354559  

    Final Occupation by Irrep:
              A 
    DOCC [    21 ]

  Energy converged.

  @DF-RHF Final Energy:  -196.40028384760802

   => Energetics <=

    Nuclear Repulsion Energy =            192.4348762355057829
    One-Electron Energy =                -644.7369311084660239
    Two-Electron Energy =                 255.9017710253522182
    DFT Exchange-Correlation Energy =       0.0000000000000000
    Empirical Dispersion Energy =           0.0000000000000000
    PCM Polarization Energy =               0.0000000000000000
    EFP Energy =                            0.0000000000000000
    Total Energy =                       -196.4002838476080228


  Saving occupied orbitals to File 180.

*** tstop() called on wr37 at Wed Sep 21 11:05:13 2016
Module time:
	user time   =     210.72 seconds =       3.51 minutes
	system time =       3.30 seconds =       0.05 minutes
	total time  =         21 seconds =       0.35 minutes
Total time:
	user time   =    1349.36 seconds =      22.49 minutes
	system time =      29.29 seconds =       0.49 minutes
	total time  =        139 seconds =       2.32 minutes


Properties will be evaluated at   0.000000,   0.000000,   0.000000 Bohr

Properties computed using the SCF density matrix

  Nuclear Dipole Moment: (a.u.)
     X:     0.0012      Y:     1.1030      Z:     0.0150

  Electronic Dipole Moment: (a.u.)
     X:    -0.0013      Y:    -1.1267      Z:    -0.0154

  Dipole Moment: (a.u.)
     X:    -0.0001      Y:    -0.0237      Z:    -0.0003     Total:     0.0237

  Dipole Moment: (Debye)
     X:    -0.0002      Y:    -0.0602      Z:    -0.0009     Total:     0.0602


  //>>>>>>>>>>>>>>>>>>>>>>>>>>>>>>>>>>>//
  //               DFMP2               //
  //<<<<<<<<<<<<<<<<<<<<<<<<<<<<<<<<<<<//


*** tstart() called on wr37
*** at Wed Sep 21 11:05:13 2016


*** tstop() called on wr37 at Wed Sep 21 11:05:14 2016
Module time:
	user time   =       3.39 seconds =       0.06 minutes
	system time =       0.19 seconds =       0.00 minutes
	total time  =          1 seconds =       0.02 minutes
Total time:
	user time   =    1353.40 seconds =      22.56 minutes
	system time =      29.52 seconds =       0.49 minutes
	total time  =        140 seconds =       2.33 minutes
	 --------------------------------------------------------
	                          DF-MP2                         
	      2nd-Order Density-Fitted Moller-Plesset Theory     
	              RMP2 Wavefunction,  12 Threads             
	                                                         
	        Rob Parrish, Justin Turney, Andy Simmonett,      
	           Ed Hohenstein, and C. David Sherrill          
	 --------------------------------------------------------

   => Auxiliary Basis Set <=

  Basis Set: 
    Number of shells: 308
    Number of basis function: 1082
    Number of Cartesian functions: 1340
    Spherical Harmonics?: true
    Max angular momentum: 4

	 --------------------------------------------------------
	                 NBF =   506, NAUX =  1082
	 --------------------------------------------------------
	   CLASS    FOCC     OCC    AOCC    AVIR     VIR    FVIR
	   PAIRS       5      21      16     485     485       0
	 --------------------------------------------------------

DGAS Warning! /src/lib/libfock/apps.cc:80 is not currently checking restricted

         ------------------------------------------------------------
                                     CPHF                           
                                  Rob Parrish                       
         ------------------------------------------------------------

  ==> Geometry <==

    Molecular point group: c1
    Full point group: C1

    Geometry (in Angstrom), charge = 0, multiplicity = 1:

       Center              X                  Y                   Z               Mass       
    ------------   -----------------  -----------------  -----------------  -----------------
           C          1.791574311890     0.718380241976     0.283117976103    12.000000000000
           H          2.190607561372     0.174013004947     1.140993913228     1.007825032070
           H          1.110264708849     1.479752460259     0.662779434019     1.007825032070
           H          2.621293829048     1.232225171100    -0.201731538030     1.007825032070
           C         -1.789323966167     0.730363364822    -0.263052200451    12.000000000000
           H         -2.618120295666     1.232577013362     0.235381517271     1.007825032070
           H         -1.105945047674     1.500399810065    -0.620960053602     1.007825032070
           H         -2.189455819220     0.211539337672    -1.136180966595     1.007825032070
           C         -1.091650065588    -0.248186097287     0.674975542002    12.000000000000
           H         -1.829488841763    -0.933917299522     1.097366421328     1.007825032070
           H         -0.666408164010     0.295333946476     1.521637447658     1.007825032070
           C         -0.001350519601    -1.067770608984    -0.014670194346    12.000000000000
           H          0.462411057885    -1.733428628818     0.719300792418     1.007825032070
           H         -0.466702469825    -1.711850944736    -0.766735119759     1.007825032070
           C          1.090641152306    -0.231602520517    -0.681719024594    12.000000000000
           H          1.826603591887    -0.906929722606    -1.123603061882     1.007825032070
           H          0.666238771239     0.336866510294    -1.512199556361     1.007825032070

  Nuclear repulsion =  192.434876235505783
  Reference energy  = -196.400283847608023

  ==> Basis Set <==

  Basis Set: AUG-CC-PVTZ
    Number of shells: 178
    Number of basis function: 506
    Number of Cartesian functions: 575
    Spherical Harmonics?: true
    Max angular momentum: 3

  ==> CGRSolver (by Rob Parrish) <==

   Number of roots    =         1
   Preconditioning    =    JACOBI
   Convergence cutoff =     1E-06
   Maximum iterations =       100

  ==> CPHFRHamiltonian (by Rob Parrish) <== 

  ==> DFJK: Density-Fitted J/K Matrices <==

    J tasked:                  Yes
    K tasked:                  Yes
    wK tasked:                  No
    OpenMP threads:             12
    Integrals threads:          12
    Memory (MB):             42915
    Algorithm:                Core
    Integral Cache:           NONE
    Schwarz Cutoff:          1E-12
    Fitting Condition:       1E-12

   => Auxiliary Basis Set <=

  Basis Set: 
    Number of shells: 318
    Number of basis function: 1072
    Number of Cartesian functions: 1315
    Spherical Harmonics?: true
    Max angular momentum: 4

  ==> CPHF Iterations <==

  => Iterations <=

             Iter  Converged  Remaining    Residual
  CGR           1          0          1   9.546E-02
  CGR           2          0          1   1.369E-02
  CGR           3          0          1   3.837E-03
  CGR           4          0          1   8.450E-04
  CGR           5          0          1   2.032E-04
  CGR           6          0          1   4.110E-05
  CGR           7          0          1   1.092E-05
  CGR           8          0          1   2.642E-06
  CGR           9          1          0   6.329E-07

    CGRSolver converged.

  ==> DFCorrGrad: Density-Fitted Correlated Gradients <==

    OpenMP threads:             12
    Integrals threads:          12
    Memory (MB):             42915
    Schwarz Cutoff:          0E+00
    Fitting Condition:       1E-12

   => Auxiliary Basis Set <=

  Basis Set: 
    Number of shells: 318
    Number of basis function: 1072
    Number of Cartesian functions: 1315
    Spherical Harmonics?: true
    Max angular momentum: 4

	-----------------------------------------------------------
	 ==================> DF-MP2 Energies <==================== 
	-----------------------------------------------------------
	 Reference Energy          =    -196.4002838476080228 [Eh]
	 Singles Energy            =      -0.0000000000000002 [Eh]
	 Same-Spin Energy          =      -0.1959059904280813 [Eh]
	 Opposite-Spin Energy      =      -0.7127607962518006 [Eh]
	 Correlation Energy        =      -0.9086667866798821 [Eh]
	 Total Energy              =    -197.3089506342878963 [Eh]
	-----------------------------------------------------------
	 ================> DF-SCS-MP2 Energies <================== 
	-----------------------------------------------------------
	 SCS Same-Spin Scale       =       0.3333333333333333 [-]
	 SCS Opposite-Spin Scale   =       1.2000000000000000 [-]
	 SCS Same-Spin Energy      =      -0.0653019968093604 [Eh]
	 SCS Opposite-Spin Energy  =      -0.8553129555021607 [Eh]
	 SCS Correlation Energy    =      -0.9206149523115214 [Eh]
	 SCS Total Energy          =    -197.3208987999195472 [Eh]
	-----------------------------------------------------------


  -Total Gradient:
     Atom            X                  Y                   Z
    ------   -----------------  -----------------  -----------------
       1       -0.000245763959     0.000078849435    -0.000246417693
       2        0.000036472851     0.000031842898     0.000098815686
       3        0.000088033126     0.000098092885     0.000085283377
       4        0.000036165764     0.000086289634     0.000096768266
       5        0.000357942165     0.000016619344     0.000326706948
       6       -0.000044720839     0.000085091433    -0.000117781257
       7       -0.000091195115     0.000119528466    -0.000110456502
       8       -0.000068276219     0.000042952631    -0.000120774432
       9       -0.000079157414    -0.000177013098    -0.000287773434
      10       -0.000024478404     0.000022577960     0.000212466011
      11       -0.000054348915    -0.000060888860     0.000170245553
      12       -0.000012030592     0.000184644844     0.000069692622
      13        0.000001450241    -0.000187246011    -0.000030474964
      14       -0.000043348853    -0.000196185982     0.000023151219
      15        0.000055408857    -0.000157164990     0.000141799533
      16        0.000029845386     0.000042313911    -0.000175154407
      17        0.000058001922    -0.000030304500    -0.000136096527


			-----------------------------------------
			 OPTKING 2.0: for geometry optimizations 
			  - R.A. King,  Bethel University        
			-----------------------------------------

	Previous internal coordinate definitions found.
	---Fragment 1 Geometry and Gradient---
	 C           3.3855847962        1.3575419166        0.5350154381
	 H           4.1396483556        0.3288369229        2.1561660153
	 H           2.0980962347        2.7963268944        1.2524716168
	 H           4.9535274507        2.3285681074       -0.3812173592
	 C          -3.3813322591        1.3801867370       -0.4970966175
	 H          -4.9475303418        2.3292329929        0.4448066044
	 H          -2.0899332581        2.8353447309       -1.1734444408
	 H          -4.1374718784        0.3997514145       -2.1470708643
	 C          -2.0629196569       -0.4690037539        1.2755189208
	 H          -3.4572328741       -1.7648479269        2.0737220037
	 H          -1.2593289227        0.5581002766        2.8754780496
	 C          -0.0025521122       -2.0177940237       -0.0277226496
	 H           0.8738302602       -3.2757053794        1.3592815048
	 H          -0.8819398535       -3.2349294659       -1.4489193928
	 C           2.0610130871       -0.4376653355       -1.2882622561
	 H           3.4517805420       -1.7138487975       -2.1233020690
	 H           1.2590088168        0.6365854478       -2.8576430198
	            -0.0002457640        0.0000788494       -0.0002464177
	             0.0000364729        0.0000318429        0.0000988157
	             0.0000880331        0.0000980929        0.0000852834
	             0.0000361658        0.0000862896        0.0000967683
	             0.0003579422        0.0000166193        0.0003267069
	            -0.0000447208        0.0000850914       -0.0001177813
	            -0.0000911951        0.0001195285       -0.0001104565
	            -0.0000682762        0.0000429526       -0.0001207744
	            -0.0000791574       -0.0001770131       -0.0002877734
	            -0.0000244784        0.0000225780        0.0002124660
	            -0.0000543489       -0.0000608889        0.0001702456
	            -0.0000120306        0.0001846448        0.0000696926
	             0.0000014502       -0.0001872460       -0.0000304750
	            -0.0000433489       -0.0001961860        0.0000231512
	             0.0000554089       -0.0001571650        0.0001417995
	             0.0000298454        0.0000423139       -0.0001751544
	             0.0000580019       -0.0000303045       -0.0001360965

	---Fragment 1 Intrafragment Coordinates---
	 - Coordinate -           - BOHR/RAD -       - ANG/DEG -
	 R(1,2)           =         2.062759	       1.091565
	 R(1,3)           =         2.059726	       1.089960
	 R(1,4)           =         2.059325	       1.089748
	 R(1,15)          =         2.881250	       1.524692
	 R(5,6)           =         2.059332	       1.089751
	 R(5,7)           =         2.059768	       1.089982
	 R(5,8)           =         2.062866	       1.091622
	 R(5,9)           =         2.880952	       1.524534
	 R(9,10)          =         2.064086	       1.092267
	 R(9,11)          =         2.064115	       1.092283
	 R(9,12)          =         2.888305	       1.528425
	 R(12,13)         =         2.067406	       1.094024
	 R(12,14)         =         2.067496	       1.094072
	 R(12,15)         =         2.888610	       1.528587
	 R(15,16)         =         2.064018	       1.092231
	 R(15,17)         =         2.064021	       1.092233
	 B(1,15,12)       =         1.974796	     113.147448
	 B(1,15,16)       =         1.908678	     109.359208
	 B(1,15,17)       =         1.912936	     109.603164
	 B(2,1,3)         =         1.878751	     107.644490
	 B(2,1,4)         =         1.882296	     107.847635
	 B(2,1,15)        =         1.933350	     110.772823
	 B(3,1,4)         =         1.877089	     107.549293
	 B(3,1,15)        =         1.947969	     111.610398
	 B(4,1,15)        =         1.941498	     111.239623
	 B(5,9,10)        =         1.908977	     109.376336
	 B(5,9,11)        =         1.913142	     109.614975
	 B(5,9,12)        =         1.974701	     113.142026
	 B(6,5,7)         =         1.876998	     107.544072
	 B(6,5,8)         =         1.881885	     107.824058
	 B(6,5,9)         =         1.941669	     111.249432
	 B(7,5,8)         =         1.878575	     107.634419
	 B(7,5,9)         =         1.948275	     111.627913
	 B(8,5,9)         =         1.933511	     110.782011
	 B(9,12,13)       =         1.902806	     109.022779
	 B(9,12,14)       =         1.899088	     108.809724
	 B(9,12,15)       =         1.996735	     114.404489
[...]
			 OPTKING 2.0: for geometry optimizations 
			  - R.A. King,  Bethel University        
			-----------------------------------------

	Previous internal coordinate definitions found.
	---Fragment 1 Geometry and Gradient---
	 C           3.4125858382        1.3363778020        0.5625411465
	 H           4.1608646702        0.2838170115        2.1705793550
	 H           2.1370970389        2.7776787843        1.2959039984
	 H           4.9860299557        2.3029010533       -0.3487254761
	 C          -3.4066697087        1.3658892196       -0.5263557992
	 H          -4.9759202946        2.3145441310        0.4105573740
	 H          -2.1248401836        2.8207120011       -1.2209376693
	 H          -4.1594556730        0.3600489611       -2.1619566829
	 C          -2.0711385024       -0.4535263015        1.2642524060
	 H          -3.4554092945       -1.7513167623        2.0760382349
	 H          -1.2713228792        0.5967645105        2.8505107150
	 C          -0.0043864779       -2.0035354851       -0.0268288258
	 H           0.8636456698       -3.2602305084        1.3661497467
	 H          -0.8778304143       -3.2186684150       -1.4529070918
	 C           2.0692074482       -0.4285743993       -1.2760644877
	 H           3.4478306712       -1.7102108745       -2.1223905674
	 H           1.2740901646        0.6673053333       -2.8335840014
	             0.0000000653        0.0000000067        0.0000000896
	            -0.0000000017       -0.0000000334        0.0000000516
	            -0.0000000414        0.0000000392        0.0000000051
	            -0.0000000426       -0.0000000018       -0.0000000026
	            -0.0000001686        0.0000001329       -0.0000001168
	            -0.0000000233        0.0000000023        0.0000000814
	             0.0000001045        0.0000000714       -0.0000000236
	            -0.0000000469       -0.0000001046       -0.0000001196
	             0.0000001997       -0.0000001687       -0.0000000550
	            -0.0000000727       -0.0000000499        0.0000000009
	             0.0000000474        0.0000001341        0.0000002553
	             0.0000000300        0.0000002779        0.0000000520
	             0.0000000202       -0.0000001278        0.0000000853
	            -0.0000000505       -0.0000001544       -0.0000001171
	             0.0000000327       -0.0000000671       -0.0000000780
	            -0.0000000493        0.0000000047        0.0000000211
	            -0.0000000029        0.0000000386       -0.0000001295

	---Fragment 1 Intrafragment Coordinates---
	 - Coordinate -           - BOHR/RAD -       - ANG/DEG -
	 R(1,2)           =         2.062424	       1.091388
	 R(1,3)           =         2.059622	       1.089905
	 R(1,4)           =         2.059199	       1.089681
	 R(1,15)          =         2.881005	       1.524562
	 R(5,6)           =         2.059199	       1.089681
	 R(5,7)           =         2.059621	       1.089905
	 R(5,8)           =         2.062424	       1.091388
	 R(5,9)           =         2.881006	       1.524563
	 R(9,10)          =         2.063846	       1.092140
	 R(9,11)          =         2.063742	       1.092085
	 R(9,12)          =         2.888059	       1.528295
	 R(12,13)         =         2.067160	       1.093894
	 R(12,14)         =         2.067160	       1.093894
	 R(12,15)         =         2.888059	       1.528295
	 R(15,16)         =         2.063846	       1.092140
	 R(15,17)         =         2.063742	       1.092085
	 B(1,15,12)       =         1.974497	     113.130356
	 B(1,15,16)       =         1.907797	     109.308693
	 B(1,15,17)       =         1.913444	     109.632266
	 B(2,1,3)         =         1.879899	     107.710295
	 B(2,1,4)         =         1.883204	     107.899654
	 B(2,1,15)        =         1.932755	     110.738703
	 B(3,1,4)         =         1.877911	     107.596403
	 B(3,1,15)        =         1.946765	     111.541417
	 B(4,1,15)        =         1.940585	     111.187337
	 B(5,9,10)        =         1.907796	     109.308683
	 B(5,9,11)        =         1.913444	     109.632245
	 B(5,9,12)        =         1.974497	     113.130365
	 B(6,5,7)         =         1.877912	     107.596425
	 B(6,5,8)         =         1.883204	     107.899663
	 B(6,5,9)         =         1.940585	     111.187315
	 B(7,5,8)         =         1.879900	     107.710316
	 B(7,5,9)         =         1.946765	     111.541412
	 B(8,5,9)         =         1.932755	     110.738681
	 B(9,12,13)       =         1.902370	     108.997762
	 B(9,12,14)       =         1.898123	     108.754446
	 B(9,12,15)       =         1.998186	     114.487597
	 B(10,9,11)       =         1.852128	     106.119117
	 B(10,9,12)       =         1.894769	     108.562262
	 B(11,9,12)       =         1.917081	     109.840666
	 B(12,15,16)      =         1.894769	     108.562252
	 B(12,15,17)      =         1.917081	     109.840648
	 B(13,12,14)      =         1.859748	     106.555690
	 B(13,12,15)      =         1.898123	     108.754445
	 B(14,12,15)      =         1.902370	     108.997759
	 B(16,15,17)      =         1.852128	     106.119123
	 D(1,15,12,9)     =         1.012664	      58.021400
	 D(1,15,12,13)    =        -1.119580	     -64.147222
	 D(1,15,12,14)    =        -3.140591	    -179.942589
	 D(2,1,15,12)     =         0.958682	      54.928434
	 D(2,1,15,16)     =        -1.154822	     -66.166413
	 D(2,1,15,17)     =         3.104949	     177.900478
	 D(3,1,15,12)     =        -1.134759	     -65.016918
	 D(3,1,15,16)     =         3.034922	     173.888235
	 D(3,1,15,17)     =         1.011508	      57.955126
	 D(4,1,15,12)     =         3.052200	     174.878163
	 D(4,1,15,16)     =         0.938696	      53.783316
	 D(4,1,15,17)     =        -1.084719	     -62.149793
	 D(5,9,12,13)     =        -3.140591	    -179.942587
	 D(5,9,12,14)     =        -1.119580	     -64.147217
	 D(5,9,12,15)     =         1.012664	      58.021401
	 D(6,5,9,10)      =         0.938696	      53.783309
	 D(6,5,9,11)      =        -1.084718	     -62.149774
	 D(6,5,9,12)      =         3.052200	     174.878168
	 D(7,5,9,10)      =         3.034922	     173.888238
	 D(7,5,9,11)      =         1.011508	      57.955155
	 D(7,5,9,12)      =        -1.134759	     -65.016903
	 D(8,5,9,10)      =        -1.154822	     -66.166401
	 D(8,5,9,11)      =         3.104950	     177.900515
	 D(8,5,9,12)      =         0.958682	      54.928458
	 D(9,12,15,16)    =         3.133518	     179.537340
	 D(9,12,15,17)    =        -1.131587	     -64.835144
	 D(10,9,12,13)    =        -1.019737	     -58.426646
	 D(10,9,12,14)    =         1.001273	      57.368724
	 D(10,9,12,15)    =         3.133518	     179.537341
	 D(11,9,12,13)    =         0.998344	      57.200877
	 D(11,9,12,14)    =         3.019354	     172.996247
	 D(11,9,12,15)    =        -1.131587	     -64.835135
	 D(13,12,15,16)   =         1.001273	      57.368718
	 D(13,12,15,17)   =         3.019354	     172.996235
	 D(14,12,15,16)   =        -1.019737	     -58.426649
	 D(14,12,15,17)   =         0.998343	      57.200867
	 R(1,5)           =         6.905709	       3.654344

	Current energy   :      -197.3089622959

	Energy change for the previous step:
		Projected    :        -0.0000000000
		Actual       :        -0.0000000007
	Energy ratio indicates good step: Trust radius increased to 3.750e-01.


	Performing BFGS update.
	Previous computed or guess Hessian on step 1.
	Denominators (dg)(dq) or (dq)(dq) are very small.
	 Skipping Hessian update for step 8.
	Denominators (dg)(dq) or (dq)(dq) are very small.
	 Skipping Hessian update for step 7.
	Denominators (dg)(dq) or (dq)(dq) are very small.
	 Skipping Hessian update for step 6.
	Steps to be used in Hessian update: 5 4
	Taking RFO optimization step.
	Going to follow RFO solution 1.
	Using RFO vector 1.
	Norm of target step-size    0.00001
	Projected energy change by RFO approximation:        -0.0000000000

	Back-transformation to cartesian coordinates...
	Successfully converged to displaced geometry.

	--- Internal Coordinate Step in ANG or DEG, aJ/ANG or AJ/DEG ---
	 ---------------------------------------------------------------------------
	   Coordinate                Previous        Force       Change         New 
	   ----------                --------       ------       ------       ------
	    1 R(1,2)          =      1.091388    -0.000000    -0.000000     1.091388
	    2 R(1,3)          =      1.089905    -0.000000    -0.000000     1.089905
	    3 R(1,4)          =      1.089681     0.000000     0.000000     1.089681
	    4 R(1,15)         =      1.524562    -0.000001    -0.000000     1.524562
	    5 R(5,6)          =      1.089681    -0.000000    -0.000000     1.089681
	    6 R(5,7)          =      1.089905    -0.000001    -0.000000     1.089905
	    7 R(5,8)          =      1.091388    -0.000001    -0.000000     1.091387
	    8 R(5,9)          =      1.524563    -0.000002    -0.000000     1.524562
	    9 R(9,10)         =      1.092140    -0.000001    -0.000000     1.092140
	   10 R(9,11)         =      1.092085    -0.000002    -0.000000     1.092085
	   11 R(9,12)         =      1.528295    -0.000000     0.000000     1.528295
	   12 R(12,13)        =      1.093894    -0.000001    -0.000000     1.093894
	   13 R(12,14)        =      1.093894    -0.000002    -0.000000     1.093894
	   14 R(12,15)        =      1.528295     0.000000     0.000000     1.528295
	   15 R(15,16)        =      1.092140     0.000000     0.000000     1.092141
	   16 R(15,17)        =      1.092085    -0.000001    -0.000000     1.092085
	   17 B(1,15,12)      =    113.130356     0.000000     0.000038   113.130394
	   18 B(1,15,16)      =    109.308693    -0.000000    -0.000010   109.308683
	   19 B(1,15,17)      =    109.632266    -0.000000    -0.000027   109.632239
	   20 B(2,1,3)        =    107.710295    -0.000000    -0.000004   107.710291
	   21 B(2,1,4)        =    107.899654    -0.000000    -0.000017   107.899637
	   22 B(2,1,15)       =    110.738703     0.000000    -0.000004   110.738699
	   23 B(3,1,4)        =    107.596403    -0.000000     0.000007   107.596409
	   24 B(3,1,15)       =    111.541417     0.000000     0.000009   111.541426
	   25 B(4,1,15)       =    111.187337     0.000000     0.000009   111.187345
	   26 B(5,9,10)       =    109.308683     0.000000     0.000034   109.308717
	   27 B(5,9,11)       =    109.632245     0.000000    -0.000021   109.632225
	   28 B(5,9,12)       =    113.130365    -0.000000    -0.000006   113.130359
	   29 B(6,5,7)        =    107.596425    -0.000000    -0.000013   107.596412
	   30 B(6,5,8)        =    107.899663    -0.000000    -0.000020   107.899643
	   31 B(6,5,9)        =    111.187315     0.000000     0.000032   111.187347
	   32 B(7,5,8)        =    107.710316    -0.000000    -0.000016   107.710300
	   33 B(7,5,9)        =    111.541412     0.000000     0.000010   111.541422
	   34 B(8,5,9)        =    110.738681     0.000000     0.000004   110.738685
	   35 B(9,12,13)      =    108.997762     0.000000     0.000015   108.997778
	   36 B(9,12,14)      =    108.754446    -0.000000    -0.000015   108.754431
	   37 B(9,12,15)      =    114.487597    -0.000000    -0.000017   114.487580
	   38 B(10,9,11)      =    106.119117     0.000000     0.000015   106.119131
	   39 B(10,9,12)      =    108.562262     0.000000     0.000020   108.562283
	   40 B(11,9,12)      =    109.840666    -0.000000    -0.000040   109.840625
	   41 B(12,15,16)     =    108.562252    -0.000000     0.000022   108.562275
	   42 B(12,15,17)     =    109.840648    -0.000000    -0.000035   109.840613
	   43 B(13,12,14)     =    106.555690     0.000000     0.000035   106.555725
	   44 B(13,12,15)     =    108.754445    -0.000000    -0.000012   108.754433
	   45 B(14,12,15)     =    108.997759     0.000000    -0.000002   108.997757
	   46 B(16,15,17)     =    106.119123     0.000000     0.000011   106.119135
	   47 D(1,15,12,9)    =     58.021400     0.000000     0.000114    58.021514
	   48 D(1,15,12,13)   =    -64.147222     0.000000     0.000115   -64.147106
	   49 D(1,15,12,14)   =   -179.942589    -0.000000     0.000082  -179.942508
	   50 D(2,1,15,12)    =     54.928434     0.000000     0.000061    54.928495
	   51 D(2,1,15,16)    =    -66.166413    -0.000000     0.000014   -66.166399
	   52 D(2,1,15,17)    =    177.900478     0.000000     0.000022   177.900500
	   53 D(3,1,15,12)    =    -65.016918     0.000000     0.000062   -65.016856
	   54 D(3,1,15,16)    =    173.888235    -0.000000     0.000016   173.888251
	   55 D(3,1,15,17)    =     57.955126     0.000000     0.000024    57.955149
	   56 D(4,1,15,12)    =    174.878163     0.000000     0.000042   174.878205
	   57 D(4,1,15,16)    =     53.783316    -0.000000    -0.000005    53.783311
	   58 D(4,1,15,17)    =    -62.149793    -0.000000     0.000003   -62.149790
	   59 D(5,9,12,13)    =   -179.942587    -0.000000    -0.000059  -179.942646
	   60 D(5,9,12,14)    =    -64.147217    -0.000000    -0.000017   -64.147234
	   61 D(5,9,12,15)    =     58.021401    -0.000000    -0.000043    58.021358
	   62 D(6,5,9,10)     =     53.783309    -0.000000    -0.000118    53.783191
	   63 D(6,5,9,11)     =    -62.149774    -0.000000    -0.000143   -62.149918
	   64 D(6,5,9,12)     =    174.878168     0.000000    -0.000072   174.878096
	   65 D(7,5,9,10)     =    173.888238     0.000000    -0.000106   173.888133
	   66 D(7,5,9,11)     =     57.955155    -0.000000    -0.000131    57.955023
	   67 D(7,5,9,12)     =    -65.016903     0.000000    -0.000060   -65.016963
	   68 D(8,5,9,10)     =    -66.166401    -0.000000    -0.000117   -66.166518
	   69 D(8,5,9,11)     =    177.900515    -0.000000    -0.000142   177.900373
	   70 D(8,5,9,12)     =     54.928458     0.000000    -0.000071    54.928387
	   71 D(9,12,15,16)   =    179.537340     0.000000     0.000142   179.537481
	   72 D(9,12,15,17)   =    -64.835144     0.000000     0.000148   -64.834996
	   73 D(10,9,12,13)   =    -58.426646    -0.000000    -0.000006   -58.426652
	   74 D(10,9,12,14)   =     57.368724     0.000000     0.000036    57.368760
	   75 D(10,9,12,15)   =    179.537341     0.000000     0.000011   179.537352
	   76 D(11,9,12,13)   =     57.200877    -0.000000     0.000001    57.200879
	   77 D(11,9,12,14)   =    172.996247     0.000000     0.000043   172.996291
	   78 D(11,9,12,15)   =    -64.835135     0.000000     0.000018   -64.835118
	   79 D(13,12,15,16)  =     57.368718     0.000000     0.000143    57.368861
	   80 D(13,12,15,17)  =    172.996235     0.000000     0.000149   172.996384
	   81 D(14,12,15,16)  =    -58.426649    -0.000000     0.000109   -58.426540
	   82 D(14,12,15,17)  =     57.200867    -0.000000     0.000116    57.200983
	   83 R(1,5)          =      3.654344    -0.000000     0.000001     3.654345
	 ---------------------------------------------------------------------------

  ==> Convergence Check <==

  Measures of convergence in internal coordinates in au.
  Criteria marked as inactive (o), active & met (*), and active & unmet ( ).
  ---------------------------------------------------------------------------------------------
   Step     Total Energy     Delta E     MAX Force     RMS Force      MAX Disp      RMS Disp   
  ---------------------------------------------------------------------------------------------
    Convergence Criteria             o    2.00e-06 *    1.00e-06 *    6.00e-06 *    4.00e-06 *
  ---------------------------------------------------------------------------------------------
      9    -197.30896230   -6.90e-10 o    2.86e-07 *    6.52e-08 *    2.61e-06 *    1.06e-06 *  ~
  ---------------------------------------------------------------------------------------------


  **** Optimization is complete! (in 9 steps) ****

  ==> Optimization Summary <==

  Measures of convergence in internal coordinates in au.
  --------------------------------------------------------------------------------------------------------------- ~
   Step         Total Energy             Delta E       MAX Force       RMS Force        MAX Disp        RMS Disp  ~
  --------------------------------------------------------------------------------------------------------------- ~
      1    -197.308804360890   -197.308804360890      0.00376072      0.00097436      0.04481596      0.00774722  ~
      2    -197.308950634288     -0.000146273398      0.00025489      0.00008999      0.02686656      0.00506143  ~
      3    -197.308958972547     -0.000008338259      0.00024095      0.00005356      0.02767733      0.00403318  ~
      4    -197.308961921631     -0.000002949083      0.00010707      0.00002503      0.00498155      0.00145063  ~
      5    -197.308962180112     -0.000000258482      0.00005311      0.00001430      0.00201934      0.00076129  ~
      6    -197.308962282815     -0.000000102702      0.00002736      0.00000686      0.00041696      0.00016784  ~
      7    -197.308962295933     -0.000000013119      0.00000233      0.00000084      0.00006710      0.00001260  ~
      8    -197.308962295183      0.000000000750      0.00000060      0.00000016      0.00000730      0.00000215  ~
      9    -197.308962295874     -0.000000000690      0.00000029      0.00000007      0.00000261      0.00000106  ~
  --------------------------------------------------------------------------------------------------------------- ~

	Writing optimization data to binary file.
	Final energy is   -197.3089622958736
	Final (previous) structure:
	Cartesian Geometry (in Angstrom)
	    C     1.8058626479   0.7071806749   0.2976839536
	    H     2.2018347515   0.1501894939   1.1486211241
	    H     1.1309030455   1.4698843055   0.6857628605
	    H     2.6384934139   1.2186427510  -0.1845375740
	    C    -1.8027319670   0.7227974445  -0.2785354926
	    H    -2.6331436116   1.2248040024   0.2172576051
	    H    -1.1244169971   1.4926565030  -0.6460923877
	    H    -2.2010891423   0.1905297042  -1.1440582026
	    C    -1.0959992913  -0.2399957822   0.6690135591
	    H    -1.8285238450  -0.9267569156   1.0985921181
	    H    -0.6727550925   0.3157941779   1.5084253032
	    C    -0.0023212241  -1.0602253153  -0.0141972032
	    H     0.4570216047  -1.7252396798   0.7229353095
	    H    -0.4645278483  -1.7032459672  -0.7688453192
	    C     1.0949774214  -0.2267918043  -0.6752642436
	    H     1.8245134103  -0.9050046167  -1.1231207160
	    H     0.6742194768   0.3531227735  -1.4994680722
	Saving final (previous) structure.
			--------------------------
			 OPTKING Finished Execution 
			--------------------------

    Final optimized geometry and variables:
    Molecular point group: c1
    Full point group: C1

    Geometry (in Angstrom), charge = 0, multiplicity = 1:

    C            1.805862647933     0.707180674894     0.297683953610
    H            2.201834751489     0.150189493885     1.148621124115
    H            1.130903045532     1.469884305450     0.685762860473
    H            2.638493413915     1.218642751030    -0.184537574009
    C           -1.802731967050     0.722797444453    -0.278535492554
    H           -2.633143611648     1.224804002393     0.217257605127
    H           -1.124416997081     1.492656502958    -0.646092387693
    H           -2.201089142276     0.190529704181    -1.144058202570
    C           -1.095999291277    -0.239995782247     0.669013559136
    H           -1.828523845006    -0.926756915644     1.098592118079
    H           -0.672755092455     0.315794177866     1.508425303229
    C           -0.002321224108    -1.060225315321    -0.014197203150
    H            0.457021604746    -1.725239679811     0.722935309458
    H           -0.464527848269    -1.703245967210    -0.768845319174
    C            1.094977421434    -0.226791804311    -0.675264243557
    H            1.824513410275    -0.905004616663    -1.123120715985
    H            0.674219476784     0.353122773531    -1.499468072159

	Cleaning optimization helper files.

*** Psi4 exiting successfully. Buy a developer a beer!
