----- GAMESS execution script 'rungms' -----
This job is running on host wr30
under operating system Linux at Fri Feb 5 09:58:46 CET 2016
PBS has assigned the following compute nodes to this run:
wr30
Available scratch disk space (Kbyte units) at beginning of the job is
Filesystem     1K-blocks    Used Available Use% Mounted on
/dev/sda2      379797844 8358808 352139760   3% /
GAMESS temporary binary files will be written to /tmp/4606.wr0.wr.inf.h-brs.de
GAMESS supplementary output files will be written to /tmp/4606.wr0.wr.inf.h-brs.de
Copying input file 01.inp to your run's scratch directory...
cp 01.inp /tmp/4606.wr0.wr.inf.h-brs.de/01.F05
unset echo
/usr/local/hpc5/gamess-gnu/ddikick.x /usr/local/hpc5/gamess-gnu/gamess.00.x 01 -ddi 1 8 wr30:cpus=8:netext=.myri -scr /tmp/4606.wr0.wr.inf.h-brs.de

 Distributed Data Interface kickoff program.
 Initiating 8 compute processes on 1 nodes to run the following command:
 /usr/local/hpc5/gamess-gnu/gamess.00.x 01 

          ******************************************************
          *         GAMESS VERSION =  1 MAY 2013 (R1)          *
          *             FROM IOWA STATE UNIVERSITY             *
          * M.W.SCHMIDT, K.K.BALDRIDGE, J.A.BOATZ, S.T.ELBERT, *
          *   M.S.GORDON, J.H.JENSEN, S.KOSEKI, N.MATSUNAGA,   *
          *          K.A.NGUYEN, S.J.SU, T.L.WINDUS,           *
          *       TOGETHER WITH M.DUPUIS, J.A.MONTGOMERY       *
          *         J.COMPUT.CHEM.  14, 1347-1363(1993)        *
          **************** 64 BIT LINUX VERSION ****************

  SINCE 1993, STUDENTS AND POSTDOCS WORKING AT IOWA STATE UNIVERSITY
  AND ALSO IN THEIR VARIOUS JOBS AFTER LEAVING ISU HAVE MADE IMPORTANT
  CONTRIBUTIONS TO THE CODE:
     IVANA ADAMOVIC, CHRISTINE AIKENS, YURI ALEXEEV, POOJA ARORA,
     ANDREY ASADCHEV, ROB BELL, PRADIPTA BANDYOPADHYAY, JONATHAN BENTZ,
     BRETT BODE, GALINA CHABAN, WEI CHEN, CHEOL HO CHOI, PAUL DAY,
     ALBERT DEFUSCO, TIM DUDLEY, DMITRI FEDOROV, GRAHAM FLETCHER,
     MARK FREITAG, KURT GLAESEMANN, DAN KEMP, GRANT MERRILL,
     NORIYUKI MINEZAWA, JONATHAN MULLIN, TAKESHI NAGATA,
     SEAN NEDD, HEATHER NETZLOFF, BOSILJKA NJEGIC, RYAN OLSON, MIKE PAK,
     JIM SHOEMAKER, LYUDMILA SLIPCHENKO, SAROM SOK, JIE SONG,
     TETSUYA TAKETSUGU, SIMON WEBB, SOOHAENG YOO, FEDERICO ZAHARIEV

  ADDITIONAL CODE HAS BEEN PROVIDED BY COLLABORATORS IN OTHER GROUPS:
     IOWA STATE UNIVERSITY:
          JOE IVANIC, LAIMUTIS BYTAUTAS, KLAUS RUEDENBERG
     UNIVERSITY OF TOKYO: KIMIHIKO HIRAO, TAKAHITO NAKAJIMA,
          TAKAO TSUNEDA, MUNEAKI KAMIYA, SUSUMU YANAGISAWA,
          KIYOSHI YAGI, MAHITO CHIBA, SEIKEN TOKURA, NAOAKI KAWAKAMI
     UNIVERSITY OF AARHUS: FRANK JENSEN
     UNIVERSITY OF IOWA: VISVALDAS KAIRYS, HUI LI
     NATIONAL INST. OF STANDARDS AND TECHNOLOGY: WALT STEVENS, DAVID GARMER
     UNIVERSITY OF PISA: BENEDETTA MENNUCCI, JACOPO TOMASI
     UNIVERSITY OF MEMPHIS: HENRY KURTZ, PRAKASHAN KORAMBATH
     UNIVERSITY OF ALBERTA: TOBY ZENG, MARIUSZ KLOBUKOWSKI
     UNIVERSITY OF NEW ENGLAND: MARK SPACKMAN
     MIE UNIVERSITY: HIROAKI UMEDA
     MICHIGAN STATE UNIVERSITY:
          KAROL KOWALSKI, MARTA WLOCH, JEFFREY GOUR, JESSE LUTZ,
          WEI LI, PIOTR PIECUCH
     UNIVERSITY OF SILESIA: MONIKA MUSIAL, STANISLAW KUCHARSKI
     FACULTES UNIVERSITAIRES NOTRE-DAME DE LA PAIX:
          OLIVIER QUINET, BENOIT CHAMPAGNE
     UNIVERSITY OF CALIFORNIA - SANTA BARBARA: BERNARD KIRTMAN
     INSTITUTE FOR MOLECULAR SCIENCE:
          KAZUYA ISHIMURA, MICHIO KATOUDA, AND SHIGERU NAGASE
     UNIVERSITY OF NOTRE DAME: DAN CHIPMAN
     KYUSHU UNIVERSITY:
          HARUYUKI NAKANO,
          FENG LONG GU, JACEK KORCHOWIEC, MARCIN MAKOWSKI, AND YURIKO AOKI,
          HIROTOSHI MORI AND EISAKU MIYOSHI
     PENNSYLVANIA STATE UNIVERSITY:
          TZVETELIN IORDANOV, CHET SWALINA, JONATHAN SKONE,
          SHARON HAMMES-SCHIFFER
     WASEDA UNIVERSITY:
          MASATO KOBAYASHI, TOMOKO AKAMA, TSUGUKI TOUMA,
          TAKESHI YOSHIKAWA, YASUHIRO IKABATA, HIROMI NAKAI
     NANJING UNIVERSITY: SHUHUA LI
     UNIVERSITY OF NEBRASKA:
          PEIFENG SU, DEJUN SI, NANDUN THELLAMUREGE, YALI WANG, HUI LI
     UNIVERSITY OF ZURICH:
          ROBERTO PEVERATI, KIM BALDRIDGE
     N. COPERNICUS UNIVERSITY AND JACKSON STATE UNIVERSITY:
          MARIA BARYSZ


 PARALLEL VERSION RUNNING ON     8 PROCESSORS IN     1 NODES.

 EXECUTION OF GAMESS BEGUN Fri Feb  5 09:58:46 2016

            ECHO OF THE FIRST FEW INPUT CARDS -
 INPUT CARD> $CONTRL  ICHARG=0 MPLEVL=2 ISPHER=1                                            
 INPUT CARD>          RUNTYP=ENERGY SCFTYP=RHF EXETYP=RUN                                   
 INPUT CARD>          MULT=1 UNITS=ANGS MAXIT=200                                           
 INPUT CARD>          COORD=PRINAXIS                       $END                             
 INPUT CARD> $SCF     DIRSCF=.T. CONV=1.0E-08  FDIFF=.F.   $END                             
 INPUT CARD> $SYSTEM  TIMLIM=50000 MWORDS=5 MEMDDI=100     $END                             
 INPUT CARD> $BASIS   GBASIS=ACCD                          $END                             
 INPUT CARD> $GUESS   GUESS=HUCKEL                         $END                             
 INPUT CARD> $DATA                                                                          
 INPUT CARD>Full optimization                                                               
 INPUT CARD> C1                                                                             
 INPUT CARD> C           6.0   1.4718489506   0.6612744090  -0.0000819774                   
 INPUT CARD> H           1.0   2.5493845324   0.5272787803  -0.0000799518                   
 INPUT CARD> H           1.0   1.2170993997   1.2473842872  -0.8769084701                   
 INPUT CARD> H           1.0   1.2171202315   1.2475867462   0.8766154119                   
 INPUT CARD> C           6.0   0.7776536777  -0.7037088422   0.0000815885                   
 INPUT CARD> H           1.0   1.1290457714  -1.2590695974   0.8648947477                   
 INPUT CARD> H           1.0   1.1290347206  -1.2592602915  -0.8646139647                   
 INPUT CARD> C           6.0  -0.7777088996  -0.7036474817   0.0000856748                   
 INPUT CARD> H           1.0  -1.1291409510  -1.2591791273  -0.8646016682                   
 INPUT CARD> H           1.0  -1.1291379737  -1.2589736200   0.8649063294                   
 INPUT CARD> C           6.0  -1.4717970027   0.6613902666  -0.0000741773                   
 INPUT CARD> H           1.0  -2.5493430832   0.5274791574  -0.0000601703                   
 INPUT CARD> H           1.0  -1.2170125285   1.2476834883   0.8766196991                   
 INPUT CARD> H           1.0  -1.2170111363   1.2474791544  -0.8769042302                   
 INPUT CARD> $END                                                                           
    5000000 WORDS OF MEMORY AVAILABLE

     BASIS OPTIONS
     -------------
     GBASIS=ACCD         IGAUSS=       0      POLAR=NONE    
     NDFUNC=       0     NFFUNC=       0     DIFFSP=       F
     NPFUNC=       0      DIFFS=       F     BASNAM=        


     RUN TITLE
     ---------
 Full optimization                                                               

 THE POINT GROUP OF THE MOLECULE IS C1      
 THE ORDER OF THE PRINCIPAL AXIS IS     0

 THE MOMENTS OF INERTIA ARE (AMU-ANGSTROM**2)
 IXX=    41.720   IYY=    96.830   IZZ=   126.322

 ATOM      ATOMIC                      COORDINATES (BOHR)
           CHARGE         X                   Y                   Z
 C           6.0     2.7813419703       -1.2497370405       -0.0000007162
 H           1.0     4.8175989379       -0.9966022552        0.0000197588
 H           1.0     2.2998960830       -2.3575012323        1.6568313390
 H           1.0     2.2999262308       -2.3574916529       -1.6568483330
 C           6.0     1.4696047623        1.3297589895       -0.0000008851
 H           1.0     2.1336763475        2.3794058819       -1.6341384170
 H           1.0     2.1336645562        2.3793794403        1.6341591626
 C           6.0    -1.4696043226        1.3297588506       -0.0000004436
 H           1.0    -2.1336686981        2.3793942123        1.6341477796
 H           1.0    -2.1336721646        2.3793926614       -1.6341484525
 C           6.0    -2.7813422907       -1.2497367894        0.0000000000
 H           1.0    -4.8175991491       -0.9966012493        0.0000091385
 H           1.0    -2.2999177070       -2.3574932186       -1.6568436591
 H           1.0    -2.2999058573       -2.3574992566        1.6568361027

          INTERNUCLEAR DISTANCES (ANGS.)
          ------------------------------

                1 C          2 H          3 H          4 H          5 C     

   1 C       0.0000000    1.0858351 *  1.0850101 *  1.0850102 *  1.5313675 *
   2 H       1.0858351 *  0.0000000    1.7499611 *  1.7499619 *  2.1573968 *
   3 H       1.0850101 *  1.7499611 *  0.0000000    1.7535239 *  2.1838014 *
   4 H       1.0850102 *  1.7499619 *  1.7535239 *  0.0000000    2.1838033 *
   5 C       1.5313675 *  2.1573968 *  2.1838014 *  2.1838033 *  0.0000000  
   6 H       2.1338744 *  2.4406114 *  3.0535132    2.5082306 *  1.0861877 *
   7 H       2.1338675 *  2.4406013 *  2.5082212 *  3.0535096    1.0861880 *
   8 C       2.6312587 *  3.5474963    2.9248767 *  2.9248868 *  1.5553626 *
   9 H       3.3467424    4.1797583    3.4333446    3.8497602    2.1661233 *
  10 H       3.3467432    4.1797640    3.8497505    3.4333525    2.1661245 *
  11 C       2.9436460 *  4.0234173    2.8883198 *  2.8883363 *  2.6312590 *
  12 H       4.0234173    5.0987276    3.9336008    3.9336193    3.5474965  
  13 H       2.8883313 *  3.9336156    2.9999603 *  2.4341328 *  2.9248836 *
  14 H       2.8883251 *  3.9336047    2.4341105 *  2.9999711 *  2.9248806 *

                6 H          7 H          8 C          9 H         10 H     

   1 C       2.1338744 *  2.1338675 *  2.6312587 *  3.3467424    3.3467432  
   2 H       2.4406114 *  2.4406013 *  3.5474963    4.1797583    4.1797640  
   3 H       3.0535132    2.5082212 *  2.9248767 *  3.4333446    3.8497505  
   4 H       2.5082306 *  3.0535096    2.9248868 *  3.8497602    3.4333525  
   5 C       1.0861877 *  1.0861880 *  1.5553626 *  2.1661233 *  2.1661245 *
   6 H       0.0000000    1.7295087 *  2.1661260 *  2.8443919 *  2.2581837 *
   7 H       1.7295087 *  0.0000000    2.1661215 *  2.2581757 *  2.8443953 *
   8 C       2.1661260 *  2.1661215 *  0.0000000    1.0861879 *  1.0861880 *
   9 H       2.8443919 *  2.2581757 *  1.0861879 *  0.0000000    1.7295080 *
  10 H       2.2581837 *  2.8443953 *  1.0861880 *  1.7295080 *  0.0000000  
  11 C       3.3467477    3.3467377    1.5313675 *  2.1338715 *  2.1338706 *
  12 H       4.1797665    4.1797553    2.1573967 *  2.4406052 *  2.4406071 *
  13 H       3.4333567    3.8497532    2.1838022 *  3.0535117    2.5082243 *
  14 H       3.8497576    3.4333402    2.1838024 *  2.5082281 *  3.0535113  

               11 C         12 H         13 H         14 H     

   1 C       2.9436460 *  4.0234173    2.8883313 *  2.8883251 *
   2 H       4.0234173    5.0987276    3.9336156    3.9336047  
   3 H       2.8883198 *  3.9336008    2.9999603 *  2.4341105 *
   4 H       2.8883363 *  3.9336193    2.4341328 *  2.9999711 *
   5 C       2.6312590 *  3.5474965    2.9248836 *  2.9248806 *
   6 H       3.3467477    4.1797665    3.4333567    3.8497576  
   7 H       3.3467377    4.1797553    3.8497532    3.4333402  
   8 C       1.5313675 *  2.1573967 *  2.1838022 *  2.1838024 *
   9 H       2.1338715 *  2.4406052 *  3.0535117    2.5082281 *
  10 H       2.1338706 *  2.4406071 *  2.5082243 *  3.0535113  
  11 C       0.0000000    1.0858350 *  1.0850102 *  1.0850101 *
  12 H       1.0858350 *  0.0000000    1.7499619 *  1.7499611 *
  13 H       1.0850102 *  1.7499619 *  0.0000000    1.7535239 *
  14 H       1.0850101 *  1.7499611 *  1.7535239 *  0.0000000  

  * ... LESS THAN  3.000


     ATOMIC BASIS SET
     ----------------
 THE CONTRACTED PRIMITIVE FUNCTIONS HAVE BEEN UNNORMALIZED
 THE CONTRACTED BASIS FUNCTIONS ARE NOW NORMALIZED TO UNITY

  SHELL TYPE  PRIMITIVE        EXPONENT          CONTRACTION COEFFICIENT(S)

 C         

      1   S       1          6665.0000000    0.000691583963
      1   S       2          1000.0000000    0.005325796153
      1   S       3           228.0000000    0.027060721042
      1   S       4            64.7100000    0.101656846141
      1   S       5            21.0600000    0.274574823617
      1   S       6             7.4950000    0.448294318924
      1   S       7             2.7970000    0.284902610715
      1   S       8             0.5215000    0.015194859206

      2   S       9          6665.0000000   -0.000293269653
      2   S      10          1000.0000000   -0.002318035474
      2   S      11           228.0000000   -0.011499786039
      2   S      12            64.7100000   -0.046826727010
      2   S      13            21.0600000   -0.128466168750
      2   S      14             7.4950000   -0.301266272463
      2   S      15             2.7970000   -0.255630702330
      2   S      16             0.5215000    1.093793361012

      3   S      17             0.1596000    1.000000000000

      4   P      18             9.4390000    0.056979251590
      4   P      19             2.0020000    0.313207211501
      4   P      20             0.5456000    0.760376741738

      5   P      21             0.1517000    1.000000000000

      6   D      22             0.5500000    1.000000000000

      7   S      23             0.0469000    1.000000000000

      8   P      24             0.0404100    1.000000000000

      9   D      25             0.1510000    1.000000000000

 H         

     10   S      26            13.0100000    0.033498726390
     10   S      27             1.9620000    0.234800801174
     10   S      28             0.4446000    0.813682957883

     11   S      29             0.1220000    1.000000000000

     12   P      30             0.7270000    1.000000000000

     13   S      31             0.0297400    1.000000000000

     14   P      32             0.1410000    1.000000000000

 H         

     15   S      33            13.0100000    0.033498726390
     15   S      34             1.9620000    0.234800801174
     15   S      35             0.4446000    0.813682957883

     16   S      36             0.1220000    1.000000000000

     17   P      37             0.7270000    1.000000000000

     18   S      38             0.0297400    1.000000000000

     19   P      39             0.1410000    1.000000000000

 H         

     20   S      40            13.0100000    0.033498726390
     20   S      41             1.9620000    0.234800801174
     20   S      42             0.4446000    0.813682957883

     21   S      43             0.1220000    1.000000000000

     22   P      44             0.7270000    1.000000000000

     23   S      45             0.0297400    1.000000000000

     24   P      46             0.1410000    1.000000000000

 C         

     25   S      47          6665.0000000    0.000691583963
     25   S      48          1000.0000000    0.005325796153
     25   S      49           228.0000000    0.027060721042
     25   S      50            64.7100000    0.101656846141
     25   S      51            21.0600000    0.274574823617
     25   S      52             7.4950000    0.448294318924
     25   S      53             2.7970000    0.284902610715
     25   S      54             0.5215000    0.015194859206

     26   S      55          6665.0000000   -0.000293269653
     26   S      56          1000.0000000   -0.002318035474
     26   S      57           228.0000000   -0.011499786039
     26   S      58            64.7100000   -0.046826727010
     26   S      59            21.0600000   -0.128466168750
     26   S      60             7.4950000   -0.301266272463
     26   S      61             2.7970000   -0.255630702330
     26   S      62             0.5215000    1.093793361012

     27   S      63             0.1596000    1.000000000000

     28   P      64             9.4390000    0.056979251590
     28   P      65             2.0020000    0.313207211501
     28   P      66             0.5456000    0.760376741738

     29   P      67             0.1517000    1.000000000000

     30   D      68             0.5500000    1.000000000000

     31   S      69             0.0469000    1.000000000000

     32   P      70             0.0404100    1.000000000000

     33   D      71             0.1510000    1.000000000000

 H         

     34   S      72            13.0100000    0.033498726390
     34   S      73             1.9620000    0.234800801174
     34   S      74             0.4446000    0.813682957883

     35   S      75             0.1220000    1.000000000000

     36   P      76             0.7270000    1.000000000000

     37   S      77             0.0297400    1.000000000000

     38   P      78             0.1410000    1.000000000000

 H         

     39   S      79            13.0100000    0.033498726390
     39   S      80             1.9620000    0.234800801174
     39   S      81             0.4446000    0.813682957883

     40   S      82             0.1220000    1.000000000000

     41   P      83             0.7270000    1.000000000000

     42   S      84             0.0297400    1.000000000000

     43   P      85             0.1410000    1.000000000000

 C         

     44   S      86          6665.0000000    0.000691583963
     44   S      87          1000.0000000    0.005325796153
     44   S      88           228.0000000    0.027060721042
     44   S      89            64.7100000    0.101656846141
     44   S      90            21.0600000    0.274574823617
     44   S      91             7.4950000    0.448294318924
     44   S      92             2.7970000    0.284902610715
     44   S      93             0.5215000    0.015194859206

     45   S      94          6665.0000000   -0.000293269653
     45   S      95          1000.0000000   -0.002318035474
     45   S      96           228.0000000   -0.011499786039
     45   S      97            64.7100000   -0.046826727010
     45   S      98            21.0600000   -0.128466168750
     45   S      99             7.4950000   -0.301266272463
     45   S     100             2.7970000   -0.255630702330
     45   S     101             0.5215000    1.093793361012

     46   S     102             0.1596000    1.000000000000

     47   P     103             9.4390000    0.056979251590
     47   P     104             2.0020000    0.313207211501
     47   P     105             0.5456000    0.760376741738

     48   P     106             0.1517000    1.000000000000

     49   D     107             0.5500000    1.000000000000

     50   S     108             0.0469000    1.000000000000

     51   P     109             0.0404100    1.000000000000

     52   D     110             0.1510000    1.000000000000

 H         

     53   S     111            13.0100000    0.033498726390
     53   S     112             1.9620000    0.234800801174
     53   S     113             0.4446000    0.813682957883

     54   S     114             0.1220000    1.000000000000

     55   P     115             0.7270000    1.000000000000

     56   S     116             0.0297400    1.000000000000

     57   P     117             0.1410000    1.000000000000

 H         

     58   S     118            13.0100000    0.033498726390
     58   S     119             1.9620000    0.234800801174
     58   S     120             0.4446000    0.813682957883

     59   S     121             0.1220000    1.000000000000

     60   P     122             0.7270000    1.000000000000

     61   S     123             0.0297400    1.000000000000

     62   P     124             0.1410000    1.000000000000

 C         

     63   S     125          6665.0000000    0.000691583963
     63   S     126          1000.0000000    0.005325796153
     63   S     127           228.0000000    0.027060721042
     63   S     128            64.7100000    0.101656846141
     63   S     129            21.0600000    0.274574823617
     63   S     130             7.4950000    0.448294318924
     63   S     131             2.7970000    0.284902610715
     63   S     132             0.5215000    0.015194859206

     64   S     133          6665.0000000   -0.000293269653
     64   S     134          1000.0000000   -0.002318035474
     64   S     135           228.0000000   -0.011499786039
     64   S     136            64.7100000   -0.046826727010
     64   S     137            21.0600000   -0.128466168750
     64   S     138             7.4950000   -0.301266272463
     64   S     139             2.7970000   -0.255630702330
     64   S     140             0.5215000    1.093793361012

     65   S     141             0.1596000    1.000000000000

     66   P     142             9.4390000    0.056979251590
     66   P     143             2.0020000    0.313207211501
     66   P     144             0.5456000    0.760376741738

     67   P     145             0.1517000    1.000000000000

     68   D     146             0.5500000    1.000000000000

     69   S     147             0.0469000    1.000000000000

     70   P     148             0.0404100    1.000000000000

     71   D     149             0.1510000    1.000000000000

 H         

     72   S     150            13.0100000    0.033498726390
     72   S     151             1.9620000    0.234800801174
     72   S     152             0.4446000    0.813682957883

     73   S     153             0.1220000    1.000000000000

     74   P     154             0.7270000    1.000000000000

     75   S     155             0.0297400    1.000000000000

     76   P     156             0.1410000    1.000000000000

 H         

     77   S     157            13.0100000    0.033498726390
     77   S     158             1.9620000    0.234800801174
     77   S     159             0.4446000    0.813682957883

     78   S     160             0.1220000    1.000000000000

     79   P     161             0.7270000    1.000000000000

     80   S     162             0.0297400    1.000000000000

     81   P     163             0.1410000    1.000000000000

 H         

     82   S     164            13.0100000    0.033498726390
     82   S     165             1.9620000    0.234800801174
     82   S     166             0.4446000    0.813682957883

     83   S     167             0.1220000    1.000000000000

     84   P     168             0.7270000    1.000000000000

     85   S     169             0.0297400    1.000000000000

     86   P     170             0.1410000    1.000000000000

 TOTAL NUMBER OF BASIS SET SHELLS             =   86
 NUMBER OF CARTESIAN GAUSSIAN BASIS FUNCTIONS =  190
 NOTE: THIS RUN WILL RESTRICT THE MO VARIATION SPACE TO SPHERICAL HARMONICS.
 THE NUMBER OF ORBITALS KEPT IN THE VARIATIONAL SPACE WILL BE PRINTED LATER.
 NUMBER OF ELECTRONS                          =   34
 CHARGE OF MOLECULE                           =    0
 SPIN MULTIPLICITY                            =    1
 NUMBER OF OCCUPIED ORBITALS (ALPHA)          =   17
 NUMBER OF OCCUPIED ORBITALS (BETA )          =   17
 TOTAL NUMBER OF ATOMS                        =   14
 THE NUCLEAR REPULSION ENERGY IS      132.5748068312

     $CONTRL OPTIONS
     ---------------
 SCFTYP=RHF          RUNTYP=ENERGY       EXETYP=RUN     
 MPLEVL=       2     CITYP =NONE         CCTYP =NONE         VBTYP =NONE    
 DFTTYP=NONE         TDDFT =NONE    
 MULT  =       1     ICHARG=       0     NZVAR =       0     COORD =PRINAXIS
 PP    =NONE         RELWFN=NONE         LOCAL =NONE         NUMGRD=       F
 ISPHER=       1     NOSYM =       0     MAXIT =     200     UNITS =ANGS    
 PLTORB=       F     MOLPLT=       F     AIMPAC=       F     FRIEND=        
 NPRINT=       7     IREST =       0     GEOM  =INPUT   
 NORMF =       0     NORMP =       0     ITOL  =      20     ICUT  =       9
 INTTYP=BEST         GRDTYP=BEST         QMTTOL= 1.0E-06

     $SYSTEM OPTIONS
     ---------------
  REPLICATED MEMORY=     5000000 WORDS (ON EVERY NODE).
 DISTRIBUTED MEMDDI=         100 MILLION WORDS IN AGGREGATE,
 MEMDDI DISTRIBUTED OVER   8 PROCESSORS IS    12500000 WORDS/PROCESSOR.
 TOTAL MEMORY REQUESTED ON EACH PROCESSOR=    17500000 WORDS.
 TIMLIM=       50000.00 MINUTES, OR      34.7 DAYS.
 PARALL= T  BALTYP=  DLB     KDIAG=    0  COREFL= F
 MXSEQ2=     300 MXSEQ3=     150

          ----------------
          PROPERTIES INPUT
          ----------------

     MOMENTS            FIELD           POTENTIAL          DENSITY
 IEMOM =       1   IEFLD =       0   IEPOT =       0   IEDEN =       0
 WHERE =COMASS     WHERE =NUCLEI     WHERE =NUCLEI     WHERE =NUCLEI  
 OUTPUT=BOTH       OUTPUT=BOTH       OUTPUT=BOTH       OUTPUT=BOTH    
 IEMINT=       0   IEFINT=       0                     IEDINT=       0
                                                       MORB  =       0
          EXTRAPOLATION IN EFFECT
          SOSCF IN EFFECT
 ORBITAL PRINTING OPTION: NPREO=     1   190     2     1

     -------------------------------
     INTEGRAL TRANSFORMATION OPTIONS
     -------------------------------
     NWORD  =            0
     CUTOFF = 1.0E-09     MPTRAN =       0
     DIRTRF =       T     AOINTS =DUP     

          ----------------------
          INTEGRAL INPUT OPTIONS
          ----------------------
 NOPK  =       1 NORDER=       0 SCHWRZ=       T

          -----------------------
          MP2 CONTROL INFORMATION
          -----------------------
          NACORE =        4  NBCORE =        4
          LMOMP2 =        F  AOINTS = DUP     
          METHOD =        2  NWORD  =               0
          MP2PRP =        F  OSPT   = NONE    
          CUTOFF = 1.00E-09  CPHFBS = BASISAO 
          CODE   = DDI     

          NUMBER OF CORE -A-  ORBITALS =     4
          NUMBER OF CORE -B-  ORBITALS =     4
          NUMBER OF OCC. -A-  ORBITALS =    17
          NUMBER OF OCC. -B-  ORBITALS =    17
          NUMBER OF MOLECULAR ORBITALS =   190
          NUMBER OF   BASIS  FUNCTIONS =   190


     ------------------------------------------
     THE POINT GROUP IS C1 , NAXIS= 0, ORDER= 1
     ------------------------------------------

 -- VARIATIONAL SPACE WILL BE RESTRICTED TO PURE SPHERICAL HARMONICS ONLY --
 AFTER EXCLUDING CONTAMINANT COMBINATIONS FROM THE CARTESIAN GAUSSIAN BASIS
 SET, THE NUMBER OF SPHERICAL HARMONICS KEPT IN THE VARIATION SPACE IS  182

     DIMENSIONS OF THE SYMMETRY SUBSPACES ARE
 A   =  182

 ..... DONE SETTING UP THE RUN .....
 CPU     0: STEP CPU TIME=     0.03 TOTAL CPU TIME=        0.0 (    0.0 MIN)
 TOTAL WALL CLOCK TIME=        0.0 SECONDS, CPU UTILIZATION IS  75.00%

          ********************
          1 ELECTRON INTEGRALS
          ********************
 ...... END OF ONE-ELECTRON INTEGRALS ......
 CPU     0: STEP CPU TIME=     0.00 TOTAL CPU TIME=        0.0 (    0.0 MIN)
 TOTAL WALL CLOCK TIME=        0.1 SECONDS, CPU UTILIZATION IS  50.00%

          -------------
          GUESS OPTIONS
          -------------
          GUESS =HUCKEL            NORB  =       0          NORDER=       0
          MIX   =       F          PRTMO =       F          PUNMO =       F
          TOLZ  = 1.0E-08          TOLE  = 1.0E-05
          SYMDEN=       F          PURIFY=       F

 INITIAL GUESS ORBITALS GENERATED BY HUCKEL   ROUTINE.
 HUCKEL GUESS REQUIRES    272744 WORDS.

 STATISTICS FOR GENERATION OF SYMMETRY ORBITAL -Q- MATRIX
 NUMBER OF CARTESIAN ATOMIC ORBITALS=        190
 NUMBER OF SPHERICAL CONTAMINANTS DROPPED=     8
 NUMBER OF LINEARLY DEPENDENT MOS DROPPED=     0
 TOTAL NUMBER OF MOS IN VARIATION SPACE=     182

 SYMMETRIES FOR INITIAL GUESS ORBITALS FOLLOW.   BOTH SET(S).
    17 ORBITALS ARE OCCUPIED (    4 CORE ORBITALS).
     5=A        6=A        7=A        8=A        9=A       10=A       11=A   
    12=A       13=A       14=A       15=A       16=A       17=A       18=A   
    19=A       20=A       21=A       22=A       23=A       24=A       25=A   
    26=A       27=A   
 ...... END OF INITIAL ORBITAL SELECTION ......
 CPU     0: STEP CPU TIME=     0.07 TOTAL CPU TIME=        0.1 (    0.0 MIN)
 TOTAL WALL CLOCK TIME=        0.2 SECONDS, CPU UTILIZATION IS  55.56%

                    ----------------------
                    AO INTEGRAL TECHNOLOGY
                    ----------------------
     S,P,L SHELL ROTATED AXIS INTEGRALS, REPROGRAMMED BY
        KAZUYA ISHIMURA (IMS) AND JOSE SIERRA (SYNSTAR).
     S,P,D,L SHELL ROTATED AXIS INTEGRALS PROGRAMMED BY
        KAZUYA ISHIMURA (INSTITUTE FOR MOLECULAR SCIENCE).
     S,P,D,F,G SHELL TO TOTAL QUARTET ANGULAR MOMENTUM SUM 5,
        ERIC PROGRAM BY GRAHAM FLETCHER (ELORET AND NASA ADVANCED
        SUPERCOMPUTING DIVISION, AMES RESEARCH CENTER).
     S,P,D,F,G,L SHELL GENERAL RYS QUADRATURE PROGRAMMED BY
        MICHEL DUPUIS (PACIFIC NORTHWEST NATIONAL LABORATORY).

          --------------------
          2 ELECTRON INTEGRALS
          --------------------

 DIRECT SCF METHOD SKIPS INTEGRAL STORAGE ON DISK.
 DIRECT TRANSFORMATION SKIPS AO INTEGRAL STORAGE ON DISK.
  ...... END OF TWO-ELECTRON INTEGRALS .....
 CPU     0: STEP CPU TIME=     0.02 TOTAL CPU TIME=        0.1 (    0.0 MIN)
 TOTAL WALL CLOCK TIME=        0.2 SECONDS, CPU UTILIZATION IS  60.00%

          --------------------------
                 RHF SCF CALCULATION
          --------------------------

     NUCLEAR ENERGY =       132.5748068312
     MAXIT =  200     NPUNCH=    2
     EXTRAP=T  DAMP=F  SHIFT=F  RSTRCT=F  DIIS=F  DEM=F  SOSCF=T
     DENSITY MATRIX CONV=  2.00E-08
     SOSCF WILL OPTIMIZE    2805 ORBITAL ROTATIONS, SOGTOL=   0.250
     MEMORY REQUIRED FOR RHF ITERS=    319458 WORDS.

 DIRECT SCF CALCULATION, SCHWRZ=T   FDIFF=F,  DIRTHR=  0.00E+00 NITDIR=10
 SCHWARZ INEQUALITY OVERHEAD:     18145 INTEGRALS, T=        0.00

                                                                                   NONZERO     BLOCKS
 ITER EX DEM     TOTAL ENERGY        E CHANGE  DENSITY CHANGE     ORB. GRAD      INTEGRALS    SKIPPED
   1  0  0     -156.9151789935  -156.9151789935   1.376664904   0.000000000      157188975      78401
          ---------------START SECOND ORDER SCF---------------
   2  1  0     -157.2794007447    -0.3642217512   0.159383905   0.021263928      157255684      84092
   3  2  0     -157.3009140110    -0.0215132663   0.019365520   0.011088109      157261888      83570
   4  3  0     -157.3048892850    -0.0039752740   0.013787961   0.001334980      157268730      83350
   5  4  0     -157.3050172882    -0.0001280032   0.002989459   0.000268457      157267636      83460
   6  5  0     -157.3050240404    -0.0000067522   0.000654461   0.000109327      157267266      83486
   7  6  0     -157.3050246260    -0.0000005856   0.000223299   0.000033196      157267214      83494
   8  7  0     -157.3050246666    -0.0000000406   0.000045746   0.000006259      157267208      83498
   9  8  0     -157.3050246682    -0.0000000016   0.000017044   0.000001188      157267208      83498
  10  9  0     -157.3050246683    -0.0000000001   0.000005640   0.000000255      157267208      83498
  11 10  0     -157.3050246683    -0.0000000000   0.000000616   0.000000083      157267208      83498
  12 11  0     -157.3050246683     0.0000000000   0.000000365   0.000000015      157267208      83498
  13 12  0     -157.3050246683    -0.0000000000   0.000000000   0.000000004      157267208      83498

          -----------------
          DENSITY CONVERGED
          -----------------
     TIME TO FORM FOCK OPERATORS=      29.6 SECONDS (       2.3 SEC/ITER)
     FOCK TIME ON FIRST ITERATION=       2.6, LAST ITERATION=       2.4
     TIME TO SOLVE SCF EQUATIONS=       0.1 SECONDS (       0.0 SEC/ITER)

 FINAL RHF ENERGY IS     -157.3050246683 AFTER  13 ITERATIONS

          ------------
          EIGENVECTORS
          ------------

                      1          2          3          4          5
                  -11.2187   -11.2182   -11.2125   -11.2125    -1.0648
                     A          A          A          A          A   
    1  C  1  S    0.032611  -0.037308  -0.708806   0.709324  -0.012093
    2  C  1  S   -0.000103  -0.000108  -0.005748   0.005198   0.162054
    3  C  1  S    0.005101  -0.004067   0.031611  -0.024777   0.074335
    4  C  1  X   -0.000017   0.000115   0.000013   0.000070  -0.028779
    5  C  1  Y    0.000049  -0.000207   0.000039  -0.000111   0.043040
    6  C  1  Z   -0.000000   0.000000  -0.000000  -0.000000   0.000000
    7  C  1  X   -0.003431   0.006402  -0.005546   0.002287  -0.011131
    8  C  1  Y    0.008110  -0.006961   0.008817  -0.004286   0.048232
    9  C  1  Z    0.000000   0.000000   0.000000   0.000000   0.000000
   10  C  1 XX    0.000014  -0.000023  -0.000142  -0.000055  -0.002435
   11  C  1 YY   -0.000014   0.000046   0.000190  -0.000089   0.007687
   12  C  1 ZZ    0.000000  -0.000023  -0.000048   0.000144  -0.005252
   13  C  1 XY    0.000060   0.000094  -0.000144   0.000155  -0.009261
   14  C  1 XZ    0.000000  -0.000000  -0.000000  -0.000000  -0.000000
   15  C  1 YZ   -0.000000  -0.000000  -0.000000   0.000000   0.000000
   16  C  1  S    0.000565   0.013070   0.009916  -0.005510   0.020288
   17  C  1  X   -0.000241  -0.002435  -0.001917  -0.000096  -0.009474
   18  C  1  Y    0.001085   0.001576   0.001468  -0.000509   0.013675
   19  C  1  Z   -0.000000   0.000000  -0.000000   0.000000  -0.000000
   20  C  1 XX    0.000054  -0.000943  -0.000668   0.000703  -0.013406
   21  C  1 YY    0.001296  -0.000635   0.001957  -0.001054   0.013142
   22  C  1 ZZ   -0.001350   0.001578  -0.001290   0.000351   0.000264
   23  C  1 XY   -0.001698   0.002090  -0.001364   0.000580   0.005663
   24  C  1 XZ    0.000000  -0.000000  -0.000000  -0.000000  -0.000000
   25  C  1 YZ    0.000000   0.000000   0.000000  -0.000000   0.000000
   26  H  2  S   -0.000124   0.000030  -0.000246   0.000315   0.064250
   27  H  2  S    0.001573  -0.004247  -0.002115   0.003376   0.016259
   28  H  2  X    0.000029  -0.000002  -0.000209   0.000150  -0.009685
   29  H  2  Y   -0.000042  -0.000029  -0.000129   0.000079  -0.001148
   30  H  2  Z    0.000000  -0.000000  -0.000000   0.000000  -0.000000
   31  H  2  S    0.000276   0.001240   0.001456   0.000658   0.004652
   32  H  2  X   -0.000297   0.001300   0.001010  -0.001236  -0.000905
   33  H  2  Y    0.000062  -0.000259  -0.000387   0.000368  -0.016460
   34  H  2  Z   -0.000000   0.000000   0.000000  -0.000000   0.000000
   35  H  3  S   -0.000017   0.000079  -0.000389   0.000266   0.068097
   36  H  3  S    0.003896  -0.003295  -0.004906   0.004962   0.008977
   37  H  3  X    0.000065  -0.000042   0.000116  -0.000035   0.001291
   38  H  3  Y   -0.000076   0.000039   0.000010  -0.000106   0.005742
   39  H  3  Z    0.000018  -0.000022  -0.000108   0.000197  -0.007916
   40  H  3  S    0.000476  -0.000242  -0.000529   0.000224   0.002651
   41  H  3  X    0.000203  -0.000428   0.000258   0.000315   0.003216
   42  H  3  Y    0.000448   0.000023  -0.001226   0.001208  -0.002132
   43  H  3  Z   -0.000696   0.000522   0.001389  -0.001196  -0.003741
   44  H  4  S   -0.000017   0.000079  -0.000389   0.000266   0.068097
   45  H  4  S    0.003896  -0.003295  -0.004906   0.004962   0.008976
   46  H  4  X    0.000065  -0.000042   0.000116  -0.000035   0.001291
   47  H  4  Y   -0.000076   0.000039   0.000010  -0.000106   0.005742
   48  H  4  Z   -0.000018   0.000022   0.000108  -0.000197   0.007916
   49  H  4  S    0.000476  -0.000242  -0.000529   0.000224   0.002650
   50  H  4  X    0.000203  -0.000428   0.000258   0.000315   0.003215
   51  H  4  Y    0.000448   0.000023  -0.001226   0.001208  -0.002133
   52  H  4  Z    0.000696  -0.000522  -0.001389   0.001196   0.003740
   53  C  5  S    0.709074  -0.709479   0.037683  -0.033083  -0.017497
   54  C  5  S    0.005335  -0.006224   0.000504  -0.000494   0.231830
   55  C  5  S   -0.024374   0.039785  -0.007599   0.006737   0.082305
   56  C  5  X   -0.000100  -0.000162   0.000004   0.000105  -0.028626
   57  C  5  Y    0.000043   0.000084   0.000160  -0.000098  -0.029428
   58  C  5  Z    0.000000  -0.000000   0.000000  -0.000000   0.000000
   59  C  5  X   -0.004649  -0.016483  -0.008185   0.002735  -0.044253
   60  C  5  Y    0.005065  -0.009659   0.010517  -0.006121  -0.037079
   61  C  5  Z    0.000000  -0.000000  -0.000000  -0.000000  -0.000001
   62  C  5 XX   -0.000172   0.000178   0.000105   0.000009   0.009667
   63  C  5 YY   -0.000042   0.000013  -0.000055  -0.000021   0.000191
   64  C  5 ZZ    0.000214  -0.000191  -0.000050   0.000011  -0.009859
   65  C  5 XY    0.000189  -0.000066  -0.000077  -0.000015  -0.006646
   66  C  5 XZ    0.000000   0.000000   0.000000  -0.000000  -0.000000
   67  C  5 YZ   -0.000000   0.000000   0.000000  -0.000000  -0.000000
   68  C  5  S   -0.006095  -0.014794   0.005865   0.000328  -0.027300
   69  C  5  X   -0.000751   0.000136  -0.003714   0.000336  -0.000707
   70  C  5  Y    0.000726   0.004197   0.002523  -0.000470   0.003084
   71  C  5  Z   -0.000000  -0.000000   0.000000  -0.000000   0.000000
   72  C  5 XX    0.000473   0.004413   0.001117  -0.000211   0.012784
   73  C  5 YY   -0.001124   0.000506  -0.002427   0.001194   0.004221
   74  C  5 ZZ    0.000651  -0.004919   0.001310  -0.000983  -0.017005
   75  C  5 XY    0.001121  -0.000095   0.003283  -0.001291   0.000716
   76  C  5 XZ   -0.000000  -0.000000  -0.000000  -0.000000   0.000000
   77  C  5 YZ    0.000000   0.000000   0.000000   0.000000   0.000000
   78  H  6  S    0.000189  -0.000234   0.000161  -0.000063   0.097673
   79  H  6  S    0.005262   0.003642  -0.003547   0.002618   0.031629
   80  H  6  X    0.000107   0.000032   0.000020  -0.000034  -0.004839
   81  H  6  Y    0.000067  -0.000055  -0.000082  -0.000008  -0.007173
   82  H  6  Z   -0.000169   0.000096   0.000016   0.000010   0.011095
   83  H  6  S    0.000240  -0.000999  -0.000441   0.000268  -0.002060
   84  H  6  X   -0.000447   0.000230   0.000152  -0.000266  -0.002208
   85  H  6  Y   -0.001275  -0.000308   0.000053  -0.000360  -0.000918
   86  H  6  Z    0.001353  -0.000247  -0.000669   0.000324   0.004498
   87  H  7  S    0.000189  -0.000234   0.000161  -0.000063   0.097673
   88  H  7  S    0.005262   0.003642  -0.003547   0.002618   0.031630
   89  H  7  X    0.000107   0.000032   0.000020  -0.000034  -0.004839
   90  H  7  Y    0.000067  -0.000055  -0.000082  -0.000008  -0.007173
   91  H  7  Z    0.000169  -0.000096  -0.000016  -0.000010  -0.011096
   92  H  7  S    0.000240  -0.000999  -0.000441   0.000268  -0.002061
   93  H  7  X   -0.000447   0.000231   0.000152  -0.000266  -0.002209
   94  H  7  Y   -0.001275  -0.000308   0.000053  -0.000360  -0.000918
   95  H  7  Z   -0.001353   0.000247   0.000669  -0.000324  -0.004498
   96  C  8  S    0.709061   0.709491  -0.037712  -0.033051  -0.017497
   97  C  8  S    0.005335   0.006224  -0.000505  -0.000493   0.231830
   98  C  8  S   -0.024374  -0.039785   0.007605   0.006731   0.082305
   99  C  8  X    0.000100  -0.000162   0.000003  -0.000105   0.028626
  100  C  8  Y    0.000043  -0.000084  -0.000160  -0.000098  -0.029428
  101  C  8  Z    0.000000   0.000000  -0.000000  -0.000000   0.000000
  102  C  8  X    0.004650  -0.016483  -0.008188  -0.002728   0.044253
  103  C  8  Y    0.005064   0.009659  -0.010522  -0.006112  -0.037079
  104  C  8  Z   -0.000000   0.000000   0.000000   0.000000   0.000000
  105  C  8 XX   -0.000172  -0.000178  -0.000105   0.000010   0.009667
  106  C  8 YY   -0.000042  -0.000013   0.000055  -0.000021   0.000191
  107  C  8 ZZ    0.000214   0.000191   0.000051   0.000011  -0.009859
  108  C  8 XY   -0.000189  -0.000066  -0.000077   0.000015   0.006646
  109  C  8 XZ    0.000000   0.000000  -0.000000   0.000000   0.000000
  110  C  8 YZ   -0.000000   0.000000   0.000000  -0.000000   0.000000
  111  C  8  S   -0.006095   0.014794  -0.005864   0.000333  -0.027299
  112  C  8  X    0.000751   0.000136  -0.003714  -0.000333   0.000707
  113  C  8  Y    0.000726  -0.004197  -0.002523  -0.000467   0.003084
  114  C  8  Z    0.000000   0.000000  -0.000000   0.000000  -0.000000
  115  C  8 XX    0.000473  -0.004413  -0.001117  -0.000210   0.012785
  116  C  8 YY   -0.001124  -0.000506   0.002428   0.001192   0.004221
  117  C  8 ZZ    0.000651   0.004919  -0.001311  -0.000982  -0.017005
  118  C  8 XY   -0.001121  -0.000095   0.003284   0.001288  -0.000715
  119  C  8 XZ   -0.000000  -0.000000  -0.000000  -0.000000   0.000000
  120  C  8 YZ   -0.000000  -0.000000  -0.000000  -0.000000  -0.000000
  121  H  9  S    0.000189   0.000234  -0.000161  -0.000062   0.097673
  122  H  9  S    0.005262  -0.003642   0.003549   0.002615   0.031630
  123  H  9  X   -0.000107   0.000032   0.000020   0.000034   0.004839
  124  H  9  Y    0.000067   0.000055   0.000082  -0.000008  -0.007173
  125  H  9  Z    0.000169   0.000096   0.000016  -0.000010  -0.011096
  126  H  9  S    0.000240   0.000999   0.000441   0.000267  -0.002060
  127  H  9  X    0.000447   0.000231   0.000152   0.000266   0.002208
  128  H  9  Y   -0.001275   0.000308  -0.000053  -0.000360  -0.000918
  129  H  9  Z   -0.001353  -0.000247  -0.000669  -0.000324  -0.004498
  130  H 10  S    0.000189   0.000234  -0.000161  -0.000062   0.097673
  131  H 10  S    0.005262  -0.003642   0.003549   0.002615   0.031629
  132  H 10  X   -0.000107   0.000032   0.000020   0.000034   0.004839
  133  H 10  Y    0.000067   0.000055   0.000082  -0.000008  -0.007173
  134  H 10  Z   -0.000169  -0.000096  -0.000016   0.000010   0.011096
  135  H 10  S    0.000240   0.000999   0.000441   0.000267  -0.002061
  136  H 10  X    0.000447   0.000230   0.000152   0.000266   0.002209
  137  H 10  Y   -0.001275   0.000308  -0.000053  -0.000360  -0.000918
  138  H 10  Z    0.001353   0.000247   0.000669   0.000324   0.004498
  139  C 11  S    0.032611   0.037308   0.709411   0.708719  -0.012093
  140  C 11  S   -0.000103   0.000108   0.005753   0.005193   0.162054
  141  C 11  S    0.005101   0.004067  -0.031632  -0.024750   0.074335
  142  C 11  X    0.000017   0.000115   0.000013  -0.000070   0.028779
  143  C 11  Y    0.000049   0.000207  -0.000039  -0.000111   0.043040
  144  C 11  Z   -0.000000  -0.000000   0.000000   0.000000   0.000000
  145  C 11  X    0.003431   0.006402  -0.005548  -0.002283   0.011131
  146  C 11  Y    0.008110   0.006961  -0.008821  -0.004278   0.048232
  147  C 11  Z   -0.000000  -0.000000  -0.000000  -0.000000   0.000000
  148  C 11 XX    0.000014   0.000023   0.000142  -0.000055  -0.002435
  149  C 11 YY   -0.000014  -0.000046  -0.000190  -0.000089   0.007687
  150  C 11 ZZ    0.000000   0.000023   0.000048   0.000144  -0.005252
  151  C 11 XY   -0.000060   0.000094  -0.000144  -0.000155   0.009261
  152  C 11 XZ   -0.000000  -0.000000  -0.000000   0.000000   0.000000
  153  C 11 YZ    0.000000   0.000000   0.000000   0.000000  -0.000000
  154  C 11  S    0.000566  -0.013070  -0.009920  -0.005502   0.020287
  155  C 11  X    0.000242  -0.002435  -0.001917   0.000097   0.009474
  156  C 11  Y    0.001085  -0.001576  -0.001468  -0.000508   0.013675
  157  C 11  Z   -0.000000  -0.000000   0.000000  -0.000000   0.000000
  158  C 11 XX    0.000054   0.000943   0.000668   0.000703  -0.013406
  159  C 11 YY    0.001296   0.000635  -0.001958  -0.001052   0.013142
  160  C 11 ZZ   -0.001350  -0.001578   0.001290   0.000350   0.000264
  161  C 11 XY    0.001698   0.002090  -0.001365  -0.000578  -0.005663
  162  C 11 XZ    0.000000  -0.000000  -0.000000  -0.000000  -0.000000
  163  C 11 YZ   -0.000000  -0.000000  -0.000000   0.000000  -0.000000
  164  H 12  S   -0.000124  -0.000030   0.000246   0.000315   0.064250
  165  H 12  S    0.001573   0.004247   0.002118   0.003375   0.016259
  166  H 12  X   -0.000029  -0.000002  -0.000209  -0.000150   0.009685
  167  H 12  Y   -0.000042   0.000029   0.000129   0.000079  -0.001148
  168  H 12  Z    0.000000   0.000000   0.000000   0.000000  -0.000000
  169  H 12  S    0.000276  -0.001240  -0.001456   0.000659   0.004652
  170  H 12  X    0.000297   0.001300   0.001011   0.001235   0.000905
  171  H 12  Y    0.000062   0.000259   0.000387   0.000368  -0.016460
  172  H 12  Z    0.000000  -0.000000  -0.000000  -0.000000  -0.000000
  173  H 13  S   -0.000017  -0.000079   0.000390   0.000265   0.068097
  174  H 13  S    0.003896   0.003295   0.004910   0.004958   0.008977
  175  H 13  X   -0.000065  -0.000042   0.000116   0.000035  -0.001291
  176  H 13  Y   -0.000076  -0.000039  -0.000010  -0.000106   0.005742
  177  H 13  Z   -0.000018  -0.000022  -0.000108  -0.000197   0.007916
  178  H 13  S    0.000476   0.000242   0.000529   0.000223   0.002651
  179  H 13  X   -0.000203  -0.000428   0.000258  -0.000315  -0.003216
  180  H 13  Y    0.000448  -0.000023   0.001227   0.001207  -0.002132
  181  H 13  Z    0.000696   0.000522   0.001390   0.001195   0.003741
  182  H 14  S   -0.000017  -0.000079   0.000390   0.000265   0.068097
  183  H 14  S    0.003896   0.003295   0.004910   0.004958   0.008976
  184  H 14  X   -0.000065  -0.000042   0.000116   0.000035  -0.001291
  185  H 14  Y   -0.000076  -0.000039  -0.000010  -0.000106   0.005742
  186  H 14  Z    0.000018   0.000022   0.000108   0.000197  -0.007916
  187  H 14  S    0.000476   0.000242   0.000529   0.000223   0.002650
  188  H 14  X   -0.000203  -0.000428   0.000258  -0.000315  -0.003215
  189  H 14  Y    0.000448  -0.000023   0.001227   0.001207  -0.002133
  190  H 14  Z   -0.000696  -0.000522  -0.001390  -0.001195  -0.003740

                      6          7          8          9         10
                   -0.9771    -0.8796    -0.7716    -0.6336    -0.6111
                     A          A          A          A          A   
    1  C  1  S    0.014284  -0.008966   0.003389  -0.000000   0.002186
    2  C  1  S   -0.238863   0.208749  -0.128345  -0.000000  -0.011655
    3  C  1  S    0.026191  -0.003134  -0.079714   0.000001  -0.012027
    4  C  1  X    0.002370   0.027652  -0.039318  -0.000002  -0.225697
    5  C  1  Y   -0.030034  -0.059312   0.121774  -0.000000  -0.060449
    6  C  1  Z   -0.000000   0.000000   0.000000   0.170045  -0.000001
    7  C  1  X   -0.034912   0.017402  -0.001439  -0.000002  -0.039277
    8  C  1  Y    0.053076  -0.082180   0.080612   0.000002  -0.027265
    9  C  1  Z    0.000000  -0.000001   0.000001   0.072612  -0.000001
   10  C  1 XX    0.001775   0.000607  -0.006947   0.000000  -0.009633
   11  C  1 YY   -0.005636  -0.005022   0.014052  -0.000000   0.000954
   12  C  1 ZZ    0.003861   0.004415  -0.007105  -0.000000   0.008679
   13  C  1 XY    0.003474   0.006263  -0.007623   0.000000  -0.007135
   14  C  1 XZ   -0.000000  -0.000000  -0.000000  -0.008690  -0.000000
   15  C  1 YZ    0.000000  -0.000000   0.000000  -0.000464  -0.000000
   16  C  1  S   -0.034732   0.082704  -0.084309  -0.000002   0.059531
   17  C  1  X    0.018622  -0.015508   0.038148  -0.000000  -0.006814
   18  C  1  Y   -0.008842   0.017883  -0.004793  -0.000001   0.011580
   19  C  1  Z    0.000000   0.000000   0.000000   0.002865   0.000001
   20  C  1 XX    0.014071   0.018030   0.013252  -0.000001   0.021637
   21  C  1 YY   -0.007003  -0.015176  -0.006572   0.000001  -0.004041
   22  C  1 ZZ   -0.007068  -0.002853  -0.006680   0.000000  -0.017596
   23  C  1 XY   -0.015387  -0.000630  -0.006400  -0.000000   0.011676
   24  C  1 XZ    0.000001   0.000000  -0.000000   0.011376   0.000001
   25  C  1 YZ   -0.000000  -0.000000   0.000000   0.031159  -0.000000
   26  H  2  S   -0.118155   0.119922  -0.088122  -0.000000  -0.207662
   27  H  2  S   -0.043476   0.024015  -0.082426   0.000002  -0.151543
   28  H  2  X    0.015732  -0.015362   0.008386   0.000000   0.011944
   29  H  2  Y    0.002413  -0.002892   0.003095  -0.000000   0.000468
   30  H  2  Z    0.000000  -0.000000   0.000000   0.004109   0.000000
   31  H  2  S   -0.003664   0.008030  -0.029996   0.000000   0.001337
   32  H  2  X    0.012773  -0.014502   0.024125  -0.000001   0.022881
   33  H  2  Y    0.006778   0.009860  -0.002679  -0.000000   0.007954
   34  H  2  Z   -0.000000   0.000000   0.000000  -0.009898   0.000000
   35  H  3  S   -0.107460   0.126211  -0.109657   0.117794   0.068404
   36  H  3  S    0.015885   0.016338   0.024028   0.067646   0.042415
   37  H  3  X   -0.003772   0.004729  -0.003474   0.002455  -0.005532
   38  H  3  Y   -0.008414   0.007106  -0.004637   0.005011   0.001079
   39  H  3  Z    0.012144  -0.012408   0.010535  -0.004112  -0.004286
   40  H  3  S   -0.006253   0.000039   0.008292  -0.002467   0.000851
   41  H  3  X   -0.003668   0.002666   0.002722   0.001412   0.008665
   42  H  3  Y    0.002532   0.005156   0.000560  -0.006006   0.004921
   43  H  3  Z   -0.003572  -0.003064  -0.007936  -0.011114   0.000062
   44  H  4  S   -0.107460   0.126211  -0.109657  -0.117794   0.068402
   45  H  4  S    0.015885   0.016338   0.024026  -0.067646   0.042415
   46  H  4  X   -0.003772   0.004729  -0.003474  -0.002455  -0.005532
   47  H  4  Y   -0.008414   0.007105  -0.004637  -0.005011   0.001079
   48  H  4  Z   -0.012144   0.012408  -0.010535  -0.004112   0.004285
   49  H  4  S   -0.006253   0.000039   0.008291   0.002466   0.000852
   50  H  4  X   -0.003668   0.002666   0.002721  -0.001413   0.008666
   51  H  4  Y    0.002532   0.005156   0.000560   0.006006   0.004921
   52  H  4  Z    0.003572   0.003065   0.007935  -0.011115  -0.000062
   53  C  5  S    0.010214   0.005638  -0.003877   0.000000   0.000574
   54  C  5  S   -0.145069  -0.156944   0.208242  -0.000001   0.021938
   55  C  5  S   -0.023001   0.010313   0.024860  -0.000001   0.074705
   56  C  5  X   -0.074775   0.074210   0.093529  -0.000002  -0.181755
   57  C  5  Y    0.043192  -0.091751   0.071772  -0.000002  -0.130606
   58  C  5  Z   -0.000000  -0.000000   0.000001   0.247297  -0.000001
   59  C  5  X   -0.186168   0.097437   0.011172  -0.000001  -0.082811
   60  C  5  Y    0.183493  -0.092262   0.004062   0.000002  -0.068187
   61  C  5  Z    0.000001   0.000000  -0.000001   0.085126  -0.000000
   62  C  5 XX    0.009985  -0.010853  -0.011608  -0.000000   0.007021
   63  C  5 YY   -0.012865   0.013125  -0.000145  -0.000000   0.003562
   64  C  5 ZZ    0.002879  -0.002273   0.011753   0.000000  -0.010582
   65  C  5 XY    0.010846  -0.006098   0.007369  -0.000000   0.004540
   66  C  5 XZ   -0.000000   0.000000  -0.000000   0.002863   0.000000
   67  C  5 YZ    0.000000   0.000000  -0.000000   0.008064   0.000000
   68  C  5  S    0.151852  -0.082278  -0.031280   0.000007  -0.059792
   69  C  5  X   -0.049306  -0.001753   0.023753  -0.000001  -0.011620
   70  C  5  Y   -0.012060   0.015140  -0.008906  -0.000001   0.014562
   71  C  5  Z   -0.000000  -0.000000   0.000000   0.003816  -0.000001
   72  C  5 XX    0.047045  -0.020575   0.019884  -0.000000  -0.017603
   73  C  5 YY   -0.080967   0.014984   0.022420   0.000000   0.015567
   74  C  5 ZZ    0.033922   0.005591  -0.042304   0.000000   0.002035
   75  C  5 XY   -0.008668  -0.023115  -0.001292   0.000001   0.001638
   76  C  5 XZ   -0.000001   0.000000   0.000000  -0.023186  -0.000001
   77  C  5 YZ   -0.000000  -0.000001   0.000001  -0.003047  -0.000001
   78  H  6  S   -0.075830  -0.096537   0.162976  -0.165646  -0.092412
   79  H  6  S   -0.027526  -0.004884   0.116354  -0.042431  -0.026432
   80  H  6  X    0.003143   0.004162  -0.003700   0.004485  -0.001410
   81  H  6  Y    0.004932   0.004740  -0.007873   0.008296   0.000440
   82  H  6  Z   -0.007254  -0.009168   0.013705  -0.005101  -0.007128
   83  H  6  S    0.017846  -0.003024   0.003094  -0.000323  -0.003908
   84  H  6  X    0.011123  -0.004966  -0.017789  -0.006069   0.008625
   85  H  6  Y    0.005922   0.006377  -0.025672  -0.008143  -0.002121
   86  H  6  Z    0.006393   0.001322   0.008776   0.001373  -0.004731
   87  H  7  S   -0.075830  -0.096537   0.162975   0.165645  -0.092412
   88  H  7  S   -0.027526  -0.004884   0.116351   0.042424  -0.026431
   89  H  7  X    0.003143   0.004161  -0.003699  -0.004485  -0.001410
   90  H  7  Y    0.004932   0.004740  -0.007873  -0.008296   0.000440
   91  H  7  Z    0.007254   0.009168  -0.013705  -0.005101   0.007128
   92  H  7  S    0.017847  -0.003024   0.003095   0.000323  -0.003907
   93  H  7  X    0.011123  -0.004966  -0.017788   0.006069   0.008625
   94  H  7  Y    0.005922   0.006378  -0.025671   0.008144  -0.002120
   95  H  7  Z   -0.006393  -0.001322  -0.008776   0.001375   0.004731
   96  C  8  S   -0.010214   0.005638   0.003877   0.000000   0.000574
   97  C  8  S    0.145069  -0.156944  -0.208242   0.000000   0.021938
   98  C  8  S    0.023001   0.010313  -0.024860  -0.000000   0.074705
   99  C  8  X   -0.074775  -0.074210   0.093529   0.000001   0.181755
  100  C  8  Y   -0.043192  -0.091751  -0.071772  -0.000001  -0.130606
  101  C  8  Z   -0.000000  -0.000000   0.000000   0.247297  -0.000003
  102  C  8  X   -0.186168  -0.097437   0.011172   0.000001   0.082811
  103  C  8  Y   -0.183494  -0.092262  -0.004062  -0.000000  -0.068187
  104  C  8  Z   -0.000001   0.000000   0.000001   0.085126  -0.000001
  105  C  8 XX   -0.009985  -0.010853   0.011608   0.000000   0.007021
  106  C  8 YY    0.012865   0.013125   0.000145   0.000000   0.003562
  107  C  8 ZZ   -0.002879  -0.002273  -0.011753  -0.000000  -0.010582
  108  C  8 XY    0.010846   0.006098   0.007369  -0.000000  -0.004540
  109  C  8 XZ   -0.000000   0.000000  -0.000000  -0.002863   0.000000
  110  C  8 YZ   -0.000000  -0.000000   0.000000   0.008064  -0.000000
  111  C  8  S   -0.151852  -0.082279   0.031280  -0.000004  -0.059793
  112  C  8  X   -0.049306   0.001753   0.023753  -0.000001   0.011620
  113  C  8  Y    0.012060   0.015140   0.008906   0.000000   0.014562
  114  C  8  Z    0.000000  -0.000000  -0.000000   0.003816   0.000001
  115  C  8 XX   -0.047045  -0.020575  -0.019884   0.000000  -0.017603
  116  C  8 YY    0.080967   0.014984  -0.022420  -0.000000   0.015567
  117  C  8 ZZ   -0.033922   0.005591   0.042304  -0.000000   0.002035
  118  C  8 XY   -0.008668   0.023115  -0.001292   0.000000  -0.001638
  119  C  8 XZ   -0.000001   0.000000   0.000000   0.023186  -0.000000
  120  C  8 YZ    0.000000   0.000001  -0.000000  -0.003047   0.000001
  121  H  9  S    0.075830  -0.096537  -0.162976   0.165645  -0.092414
  122  H  9  S    0.027526  -0.004885  -0.116352   0.042428  -0.026433
  123  H  9  X    0.003143  -0.004162  -0.003700   0.004485   0.001410
  124  H  9  Y   -0.004932   0.004740   0.007873  -0.008296   0.000440
  125  H  9  Z   -0.007254   0.009168   0.013705  -0.005101   0.007128
  126  H  9  S   -0.017847  -0.003024  -0.003094   0.000323  -0.003908
  127  H  9  X    0.011123   0.004966  -0.017789  -0.006069  -0.008625
  128  H  9  Y   -0.005922   0.006377   0.025672   0.008144  -0.002120
  129  H  9  Z    0.006393  -0.001322   0.008776   0.001374   0.004731
  130  H 10  S    0.075830  -0.096537  -0.162976  -0.165646  -0.092410
  131  H 10  S    0.027526  -0.004883  -0.116353  -0.042426  -0.026430
  132  H 10  X    0.003143  -0.004162  -0.003700  -0.004485   0.001410
  133  H 10  Y   -0.004932   0.004740   0.007873   0.008296   0.000440
  134  H 10  Z    0.007254  -0.009168  -0.013705  -0.005101  -0.007128
  135  H 10  S   -0.017846  -0.003025  -0.003094  -0.000323  -0.003907
  136  H 10  X    0.011122   0.004966  -0.017789   0.006069  -0.008625
  137  H 10  Y   -0.005922   0.006377   0.025671  -0.008144  -0.002120
  138  H 10  Z   -0.006393   0.001322  -0.008776   0.001374  -0.004730
  139  C 11  S   -0.014284  -0.008966  -0.003389   0.000000   0.002186
  140  C 11  S    0.238864   0.208749   0.128345  -0.000000  -0.011655
  141  C 11  S   -0.026191  -0.003134   0.079714  -0.000000  -0.012027
  142  C 11  X    0.002370  -0.027652  -0.039318   0.000001   0.225697
  143  C 11  Y    0.030034  -0.059312  -0.121774  -0.000000  -0.060449
  144  C 11  Z   -0.000000   0.000000   0.000000   0.170045  -0.000002
  145  C 11  X   -0.034912  -0.017402  -0.001439   0.000001   0.039276
  146  C 11  Y   -0.053076  -0.082180  -0.080612  -0.000000  -0.027265
  147  C 11  Z   -0.000000   0.000000  -0.000000   0.072612  -0.000001
  148  C 11 XX   -0.001775   0.000607   0.006947  -0.000000  -0.009633
  149  C 11 YY    0.005636  -0.005022  -0.014052   0.000000   0.000954
  150  C 11 ZZ   -0.003861   0.004415   0.007105  -0.000000   0.008679
  151  C 11 XY    0.003474  -0.006263  -0.007623   0.000000   0.007135
  152  C 11 XZ   -0.000000   0.000000  -0.000000   0.008690   0.000000
  153  C 11 YZ    0.000000  -0.000000  -0.000000  -0.000464  -0.000000
  154  C 11  S    0.034732   0.082705   0.084309  -0.000000   0.059532
  155  C 11  X    0.018622   0.015508   0.038148  -0.000000   0.006814
  156  C 11  Y    0.008842   0.017883   0.004793   0.000000   0.011580
  157  C 11  Z   -0.000000  -0.000000  -0.000000   0.002865  -0.000000
  158  C 11 XX   -0.014071   0.018030  -0.013252   0.000000   0.021637
  159  C 11 YY    0.007003  -0.015176   0.006572  -0.000000  -0.004041
  160  C 11 ZZ    0.007068  -0.002853   0.006680  -0.000000  -0.017596
  161  C 11 XY   -0.015387   0.000630  -0.006400  -0.000000  -0.011676
  162  C 11 XZ    0.000000   0.000000  -0.000000  -0.011376   0.000000
  163  C 11 YZ    0.000000   0.000000   0.000000   0.031159   0.000000
  164  H 12  S    0.118155   0.119922   0.088122  -0.000001  -0.207662
  165  H 12  S    0.043476   0.024015   0.082427  -0.000001  -0.151543
  166  H 12  X    0.015732   0.015362   0.008386  -0.000000  -0.011944
  167  H 12  Y   -0.002413  -0.002892  -0.003095  -0.000000   0.000468
  168  H 12  Z   -0.000000  -0.000000  -0.000000   0.004109   0.000000
  169  H 12  S    0.003664   0.008030   0.029996  -0.000001   0.001337
  170  H 12  X    0.012773   0.014502   0.024125  -0.000000  -0.022881
  171  H 12  Y   -0.006778   0.009860   0.002679  -0.000000   0.007954
  172  H 12  Z    0.000000   0.000000  -0.000000  -0.009898   0.000000
  173  H 13  S    0.107460   0.126211   0.109657  -0.117794   0.068404
  174  H 13  S   -0.015885   0.016338  -0.024027  -0.067646   0.042414
  175  H 13  X   -0.003772  -0.004729  -0.003474   0.002455   0.005532
  176  H 13  Y    0.008414   0.007105   0.004637  -0.005011   0.001079
  177  H 13  Z    0.012144   0.012408   0.010535  -0.004112   0.004286
  178  H 13  S    0.006253   0.000039  -0.008291   0.002467   0.000851
  179  H 13  X   -0.003668  -0.002666   0.002722   0.001412  -0.008665
  180  H 13  Y   -0.002532   0.005156  -0.000560   0.006006   0.004921
  181  H 13  Z   -0.003572   0.003064  -0.007935  -0.011115  -0.000062
  182  H 14  S    0.107460   0.126211   0.109657   0.117794   0.068402
  183  H 14  S   -0.015885   0.016338  -0.024027   0.067646   0.042416
  184  H 14  X   -0.003772  -0.004729  -0.003474  -0.002455   0.005532
  185  H 14  Y    0.008414   0.007106   0.004637   0.005011   0.001079
  186  H 14  Z   -0.012144  -0.012408  -0.010535  -0.004112  -0.004286
  187  H 14  S    0.006253   0.000039  -0.008292  -0.002466   0.000852
  188  H 14  X   -0.003668  -0.002666   0.002722  -0.001413  -0.008666
  189  H 14  Y   -0.002532   0.005156  -0.000560  -0.006006   0.004921
  190  H 14  Z    0.003572  -0.003064   0.007935  -0.011114   0.000061

                     11         12         13         14         15
                   -0.5652    -0.5368    -0.5260    -0.5129    -0.4616
                     A          A          A          A          A   
    1  C  1  S   -0.000000   0.000213  -0.000001   0.000000   0.001700
    2  C  1  S    0.000000   0.015998  -0.017407   0.000000  -0.041494
    3  C  1  S   -0.000001   0.040528   0.041164  -0.000001  -0.162892
    4  C  1  X   -0.000001  -0.032891   0.295367  -0.000002   0.081048
    5  C  1  Y   -0.000003   0.275316   0.091183   0.000001  -0.271005
    6  C  1  Z   -0.261446  -0.000004   0.000000   0.242329   0.000003
    7  C  1  X    0.000000  -0.038704   0.052272   0.000000   0.129986
    8  C  1  Y   -0.000000   0.109782  -0.030003  -0.000001  -0.209223
    9  C  1  Z   -0.063100  -0.000001   0.000000   0.015106   0.000001
   10  C  1 XX   -0.000000   0.004646   0.024171   0.000000  -0.004889
   11  C  1 YY   -0.000000   0.010134  -0.010265   0.000000  -0.007288
   12  C  1 ZZ    0.000000  -0.014780  -0.013905  -0.000000   0.012177
   13  C  1 XY   -0.000000  -0.013432   0.005047   0.000000   0.015859
   14  C  1 XZ    0.009697   0.000000   0.000001  -0.005204  -0.000000
   15  C  1 YZ    0.011108   0.000000   0.000000  -0.024260  -0.000000
   16  C  1  S   -0.000000  -0.040684   0.030670   0.000002   0.136817
   17  C  1  X    0.000001   0.004983  -0.049913  -0.000001   0.005105
   18  C  1  Y    0.000001  -0.004767  -0.011305   0.000000   0.018601
   19  C  1  Z   -0.036076  -0.000000  -0.000001  -0.000459  -0.000000
   20  C  1 XX    0.000002  -0.012293  -0.049040  -0.000001   0.001276
   21  C  1 YY   -0.000001   0.003846  -0.000546  -0.000000  -0.004419
   22  C  1 ZZ   -0.000001   0.008447   0.049586   0.000001   0.003144
   23  C  1 XY   -0.000000   0.000994  -0.016995  -0.000000   0.020581
   24  C  1 XZ   -0.045685  -0.000001  -0.000002   0.016308   0.000000
   25  C  1 YZ   -0.001713  -0.000000  -0.000000   0.011186   0.000001
   26  H  2  S   -0.000004   0.014657   0.282529   0.000001   0.013680
   27  H  2  S   -0.000005   0.055954   0.285394   0.000002  -0.061241
   28  H  2  X    0.000000  -0.000895  -0.012779  -0.000000   0.000104
   29  H  2  Y   -0.000000   0.007383   0.001607   0.000000  -0.008655
   30  H  2  Z   -0.007194  -0.000000  -0.000000   0.008119   0.000000
   31  H  2  S   -0.000001  -0.006595   0.038392   0.000000  -0.021127
   32  H  2  X    0.000001  -0.011594  -0.041304  -0.000000   0.015175
   33  H  2  Y    0.000000  -0.007002  -0.006229   0.000000   0.004604
   34  H  2  Z    0.018212   0.000000  -0.000000  -0.003922   0.000000
   35  H  3  S   -0.188347  -0.122269  -0.120494   0.197051   0.095782
   36  H  3  S   -0.081797  -0.091758  -0.179989   0.228431   0.053391
   37  H  3  X   -0.003371  -0.002846   0.005148   0.003188   0.003453
   38  H  3  Y   -0.008505   0.001849  -0.002696   0.009293  -0.002622
   39  H  3  Z    0.004890   0.008870   0.007704  -0.004425  -0.006362
   40  H  3  S    0.030632  -0.003533  -0.009414   0.008147   0.020790
   41  H  3  X    0.007103  -0.004141  -0.019318   0.004676  -0.003458
   42  H  3  Y    0.003004  -0.015263  -0.028508   0.030015   0.012254
   43  H  3  Z    0.000927   0.012590   0.024654  -0.042227  -0.001109
   44  H  4  S    0.188352  -0.122261  -0.120490  -0.197053   0.095778
   45  H  4  S    0.081805  -0.091751  -0.179985  -0.228435   0.053384
   46  H  4  X    0.003371  -0.002846   0.005148  -0.003188   0.003453
   47  H  4  Y    0.008505   0.001849  -0.002696  -0.009293  -0.002622
   48  H  4  Z    0.004891  -0.008870  -0.007704  -0.004425   0.006362
   49  H  4  S   -0.030631  -0.003533  -0.009416  -0.008147   0.020789
   50  H  4  X   -0.007102  -0.004141  -0.019319  -0.004676  -0.003458
   51  H  4  Y   -0.003003  -0.015262  -0.028507  -0.030015   0.012254
   52  H  4  Z    0.000929  -0.012589  -0.024654  -0.042228   0.001108
   53  C  5  S    0.000000  -0.000573   0.000919  -0.000000   0.000182
   54  C  5  S    0.000000   0.024343  -0.036781   0.000000  -0.011645
   55  C  5  S   -0.000000   0.068472  -0.003000   0.000001  -0.075203
   56  C  5  X   -0.000001   0.107302   0.006510   0.000002  -0.024454
   57  C  5  Y    0.000002  -0.251098   0.052223   0.000000   0.284692
   58  C  5  Z   -0.167846  -0.000000  -0.000001  -0.174863  -0.000002
   59  C  5  X   -0.000001   0.068391  -0.001503   0.000001   0.027487
   60  C  5  Y    0.000002  -0.136187   0.056555  -0.000003   0.037759
   61  C  5  Z   -0.111767  -0.000002  -0.000002  -0.008691   0.000002
   62  C  5 XX    0.000000  -0.000838   0.011526  -0.000000  -0.005359
   63  C  5 YY    0.000000   0.010056  -0.011603   0.000000  -0.010281
   64  C  5 ZZ   -0.000000  -0.009218   0.000078  -0.000000   0.015641
   65  C  5 XY    0.000000  -0.004860  -0.002401   0.000000   0.027062
   66  C  5 XZ   -0.017727  -0.000000  -0.000000   0.003664  -0.000000
   67  C  5 YZ   -0.002495   0.000000  -0.000000  -0.020808  -0.000000
   68  C  5  S   -0.000002   0.046229  -0.046449  -0.000003  -0.358236
   69  C  5  X   -0.000001   0.012275   0.024521   0.000000   0.039395
   70  C  5  Y    0.000000  -0.020374  -0.005751  -0.000000   0.094815
   71  C  5  Z    0.051956   0.000000   0.000002  -0.000513   0.000001
   72  C  5 XX    0.000001  -0.008164   0.035884  -0.000000  -0.016396
   73  C  5 YY   -0.000001   0.009937  -0.021495   0.000000   0.060271
   74  C  5 ZZ    0.000000  -0.001773  -0.014389  -0.000000  -0.043876
   75  C  5 XY   -0.000001  -0.002638  -0.033786  -0.000001  -0.001720
   76  C  5 XZ    0.006986  -0.000000   0.000001   0.022211  -0.000000
   77  C  5 YZ    0.086362   0.000000   0.000001  -0.003588   0.000002
   78  H  6  S    0.123730  -0.071054   0.000452   0.138442   0.133793
   79  H  6  S    0.078245  -0.039637   0.012975   0.157606   0.162446
   80  H  6  X   -0.003776   0.004053  -0.000105  -0.002895  -0.004382
   81  H  6  Y   -0.002250  -0.003290   0.001700  -0.007109   0.002115
   82  H  6  Z    0.002624  -0.005550  -0.000244   0.003439   0.007936
   83  H  6  S    0.028875   0.002815  -0.004782   0.004778  -0.013851
   84  H  6  X   -0.000880  -0.003942  -0.009905  -0.000446  -0.008590
   85  H  6  Y    0.024362   0.006706   0.005047  -0.026052  -0.031804
   86  H  6  Z    0.004938  -0.003226   0.001465   0.027560   0.008975
   87  H  7  S   -0.123729  -0.071052   0.000450  -0.138442   0.133786
   88  H  7  S   -0.078243  -0.039633   0.012972  -0.157604   0.162432
   89  H  7  X    0.003775   0.004053  -0.000105   0.002895  -0.004382
   90  H  7  Y    0.002250  -0.003291   0.001700   0.007109   0.002115
   91  H  7  Z    0.002624   0.005550   0.000244   0.003439  -0.007935
   92  H  7  S   -0.028874   0.002814  -0.004784  -0.004778  -0.013852
   93  H  7  X    0.000880  -0.003942  -0.009906   0.000446  -0.008589
   94  H  7  Y   -0.024363   0.006705   0.005047   0.026052  -0.031802
   95  H  7  Z    0.004939   0.003225  -0.001465   0.027560  -0.008973
   96  C  8  S   -0.000000  -0.000573  -0.000919   0.000000  -0.000182
   97  C  8  S   -0.000000   0.024343   0.036781   0.000000   0.011645
   98  C  8  S    0.000000   0.068472   0.003000  -0.000000   0.075203
   99  C  8  X    0.000002  -0.107302   0.006510  -0.000002  -0.024453
  100  C  8  Y    0.000001  -0.251098  -0.052223  -0.000002  -0.284692
  101  C  8  Z    0.167846   0.000001   0.000001  -0.174863   0.000005
  102  C  8  X    0.000000  -0.068391  -0.001503  -0.000001   0.027487
  103  C  8  Y   -0.000000  -0.136187  -0.056554  -0.000000  -0.037758
  104  C  8  Z    0.111767   0.000001   0.000002  -0.008691  -0.000000
  105  C  8 XX    0.000000  -0.000838  -0.011526  -0.000000   0.005359
  106  C  8 YY   -0.000000   0.010056   0.011603   0.000000   0.010281
  107  C  8 ZZ    0.000000  -0.009218  -0.000078  -0.000000  -0.015641
  108  C  8 XY    0.000000   0.004860  -0.002400   0.000000   0.027062
  109  C  8 XZ   -0.017727  -0.000000  -0.000000  -0.003664  -0.000000
  110  C  8 YZ    0.002495   0.000000   0.000000  -0.020808   0.000000
  111  C  8  S   -0.000000   0.046230   0.046449   0.000001   0.358236
  112  C  8  X    0.000000  -0.012275   0.024521   0.000000   0.039395
  113  C  8  Y    0.000000  -0.020375   0.005751   0.000000  -0.094815
  114  C  8  Z   -0.051956  -0.000000  -0.000001  -0.000513  -0.000001
  115  C  8 XX    0.000000  -0.008164  -0.035884   0.000000   0.016396
  116  C  8 YY    0.000000   0.009937   0.021496   0.000000  -0.060271
  117  C  8 ZZ   -0.000000  -0.001773   0.014389  -0.000000   0.043875
  118  C  8 XY   -0.000000   0.002638  -0.033787  -0.000000  -0.001720
  119  C  8 XZ    0.006986   0.000000   0.000001  -0.022211  -0.000000
  120  C  8 YZ   -0.086362  -0.000000  -0.000001  -0.003588  -0.000001
  121  H  9  S    0.123730  -0.071052  -0.000450  -0.138442  -0.133786
  122  H  9  S    0.078244  -0.039634  -0.012973  -0.157605  -0.162433
  123  H  9  X    0.003776  -0.004053  -0.000105  -0.002895  -0.004382
  124  H  9  Y   -0.002250  -0.003291  -0.001700   0.007109  -0.002115
  125  H  9  Z   -0.002624   0.005550  -0.000244   0.003439   0.007935
  126  H  9  S    0.028875   0.002815   0.004784  -0.004778   0.013852
  127  H  9  X    0.000880   0.003942  -0.009906  -0.000446  -0.008589
  128  H  9  Y    0.024362   0.006705  -0.005046   0.026052   0.031803
  129  H  9  Z   -0.004938   0.003226   0.001465   0.027560   0.008973
  130  H 10  S   -0.123730  -0.071054  -0.000451   0.138442  -0.133793
  131  H 10  S   -0.078244  -0.039636  -0.012974   0.157604  -0.162445
  132  H 10  X   -0.003775  -0.004053  -0.000105   0.002895  -0.004382
  133  H 10  Y    0.002250  -0.003290  -0.001700  -0.007109  -0.002115
  134  H 10  Z   -0.002624  -0.005550   0.000244   0.003439  -0.007936
  135  H 10  S   -0.028875   0.002814   0.004782   0.004778   0.013851
  136  H 10  X   -0.000880   0.003942  -0.009905   0.000446  -0.008590
  137  H 10  Y   -0.024362   0.006705  -0.005047  -0.026052   0.031804
  138  H 10  Z   -0.004939  -0.003226  -0.001465   0.027560  -0.008975
  139  C 11  S    0.000000   0.000213   0.000001  -0.000000  -0.001700
  140  C 11  S   -0.000000   0.015998   0.017407  -0.000000   0.041494
  141  C 11  S    0.000001   0.040528  -0.041164   0.000000   0.162892
  142  C 11  X   -0.000000   0.032891   0.295367   0.000001   0.081048
  143  C 11  Y   -0.000002   0.275316  -0.091183   0.000003   0.271005
  144  C 11  Z    0.261447   0.000001   0.000001   0.242328  -0.000004
  145  C 11  X    0.000000   0.038704   0.052272   0.000001   0.129986
  146  C 11  Y   -0.000002   0.109782   0.030003   0.000002   0.209223
  147  C 11  Z    0.063100   0.000001   0.000000   0.015106  -0.000000
  148  C 11 XX    0.000000   0.004646  -0.024171   0.000000   0.004889
  149  C 11 YY   -0.000000   0.010134   0.010265   0.000000   0.007287
  150  C 11 ZZ   -0.000000  -0.014780   0.013905  -0.000000  -0.012177
  151  C 11 XY   -0.000000   0.013432   0.005047   0.000000   0.015859
  152  C 11 XZ    0.009697  -0.000000   0.000000   0.005204  -0.000000
  153  C 11 YZ   -0.011108   0.000000  -0.000000  -0.024260   0.000000
  154  C 11  S    0.000001  -0.040685  -0.030670  -0.000001  -0.136817
  155  C 11  X    0.000001  -0.004984  -0.049913  -0.000000   0.005105
  156  C 11  Y   -0.000000  -0.004767   0.011305   0.000000  -0.018601
  157  C 11  Z    0.036076   0.000000   0.000001  -0.000459   0.000000
  158  C 11 XX   -0.000001  -0.012293   0.049040  -0.000000  -0.001276
  159  C 11 YY    0.000000   0.003846   0.000546  -0.000000   0.004419
  160  C 11 ZZ    0.000001   0.008447  -0.049586   0.000000  -0.003144
  161  C 11 XY    0.000000  -0.000994  -0.016995   0.000000   0.020582
  162  C 11 XZ   -0.045685  -0.000000  -0.000001  -0.016308   0.000001
  163  C 11 YZ    0.001713   0.000000   0.000000   0.011186  -0.000001
  164  H 12  S    0.000001   0.014657  -0.282529   0.000001  -0.013680
  165  H 12  S    0.000002   0.055954  -0.285394   0.000001   0.061242
  166  H 12  X    0.000000   0.000895  -0.012779   0.000000   0.000104
  167  H 12  Y   -0.000000   0.007383  -0.001607   0.000000   0.008655
  168  H 12  Z    0.007194   0.000000   0.000000   0.008119  -0.000000
  169  H 12  S    0.000001  -0.006595  -0.038392  -0.000000   0.021127
  170  H 12  X    0.000000   0.011594  -0.041304   0.000000   0.015175
  171  H 12  Y    0.000000  -0.007002   0.006229   0.000000  -0.004604
  172  H 12  Z   -0.018212  -0.000000  -0.000000  -0.003922   0.000000
  173  H 13  S   -0.188350  -0.122266   0.120490  -0.197053  -0.095777
  174  H 13  S   -0.081803  -0.091754   0.179985  -0.228433  -0.053383
  175  H 13  X    0.003371   0.002846   0.005148   0.003188   0.003453
  176  H 13  Y   -0.008505   0.001849   0.002696  -0.009293   0.002622
  177  H 13  Z   -0.004890  -0.008870   0.007704  -0.004425  -0.006362
  178  H 13  S    0.030631  -0.003533   0.009415  -0.008147  -0.020789
  179  H 13  X   -0.007102   0.004141  -0.019319   0.004676  -0.003458
  180  H 13  Y    0.003003  -0.015262   0.028507  -0.030015  -0.012253
  181  H 13  Z   -0.000928  -0.012590   0.024654  -0.042227  -0.001108
  182  H 14  S    0.188350  -0.122265   0.120494   0.197050  -0.095784
  183  H 14  S    0.081799  -0.091755   0.179989   0.228433  -0.053393
  184  H 14  X   -0.003371   0.002846   0.005148  -0.003188   0.003453
  185  H 14  Y    0.008505   0.001849   0.002696   0.009293   0.002622
  186  H 14  Z   -0.004890   0.008870  -0.007704  -0.004425   0.006362
  187  H 14  S   -0.030632  -0.003533   0.009414   0.008147  -0.020790
  188  H 14  X    0.007103   0.004141  -0.019318  -0.004676  -0.003458
  189  H 14  Y   -0.003004  -0.015262   0.028508   0.030015  -0.012255
  190  H 14  Z   -0.000928   0.012590  -0.024654  -0.042227   0.001110

                     16         17         18         19         20
                   -0.4559    -0.4449     0.0378     0.0463     0.0494
                     A          A          A          A          A   
    1  C  1  S    0.000535   0.000000  -0.013221  -0.000202  -0.000637
    2  C  1  S   -0.003800  -0.000001   0.016669  -0.020834  -0.026257
    3  C  1  S   -0.023187  -0.000004   0.579445   0.095759  -0.063881
    4  C  1  X    0.185713  -0.000001   0.013247  -0.032867   0.008608
    5  C  1  Y   -0.000326  -0.000005  -0.022259   0.014306   0.014208
    6  C  1  Z   -0.000002  -0.166765  -0.000000  -0.000000   0.000000
    7  C  1  X    0.044088   0.000002   0.133877  -0.530813  -0.160317
    8  C  1  Y   -0.060022  -0.000002  -0.180899   0.163743   0.615297
    9  C  1  Z   -0.000000  -0.011482  -0.000001  -0.000005   0.000002
   10  C  1 XX    0.023494  -0.000001  -0.001036  -0.001870  -0.000151
   11  C  1 YY   -0.016052   0.000000   0.000415   0.002410   0.007104
   12  C  1 ZZ   -0.007443   0.000001   0.000621  -0.000540  -0.006954
   13  C  1 XY   -0.002983   0.000000   0.001822  -0.002044  -0.005809
   14  C  1 XZ    0.000000   0.002421  -0.000000  -0.000000   0.000000
   15  C  1 YZ    0.000000   0.023090   0.000000  -0.000000   0.000000
   16  C  1  S    0.004046   0.000002   2.410983   0.380124  -1.813760
   17  C  1  X   -0.001598   0.000001   0.159966  -2.234961   0.239659
   18  C  1  Y   -0.005560   0.000000   0.037070   0.202759   0.595397
   19  C  1  Z    0.000001   0.025323   0.000006  -0.000028   0.000015
   20  C  1 XX   -0.017396   0.000001   0.024577  -0.143847  -0.046626
   21  C  1 YY   -0.005447  -0.000000  -0.061238   0.106050   0.092033
   22  C  1 ZZ    0.022843  -0.000001   0.036661   0.037797  -0.045407
   23  C  1 XY    0.000649   0.000000   0.035945  -0.068438  -0.081000
   24  C  1 XZ   -0.000001  -0.029161   0.000001  -0.000001   0.000001
   25  C  1 YZ   -0.000001  -0.023584   0.000000  -0.000000  -0.000001
   26  H  2  S    0.191648  -0.000004   0.001460  -0.008885  -0.006139
   27  H  2  S    0.229427  -0.000008  -0.589112   1.083434   0.264570
   28  H  2  X   -0.008719   0.000000  -0.000423   0.000876   0.002690
   29  H  2  Y   -0.000102  -0.000000   0.001070  -0.000873  -0.002110
   30  H  2  Z   -0.000000  -0.004943  -0.000000   0.000000   0.000000
   31  H  2  S    0.020499  -0.000001  -1.103143   3.788585  -0.056227
   32  H  2  X   -0.045343   0.000002   0.114259  -0.210225  -0.052286
   33  H  2  Y   -0.000534   0.000000  -0.010071  -0.024547  -0.067952
   34  H  2  Z   -0.000000   0.013716   0.000001  -0.000003  -0.000001
   35  H  3  S   -0.058238  -0.145923   0.007711  -0.001981  -0.001683
   36  H  3  S   -0.105059  -0.242302  -0.484625  -0.230627   0.540887
   37  H  3  X    0.005506  -0.001827   0.000056  -0.001420   0.001586
   38  H  3  Y   -0.001634  -0.007051   0.000160  -0.001454  -0.001285
   39  H  3  Z    0.002696   0.002776  -0.000734   0.002515  -0.000449
   40  H  3  S   -0.008833  -0.034115  -0.284274  -0.307732   1.299527
   41  H  3  X   -0.008929   0.005962  -0.001993   0.005256   0.006449
   42  H  3  Y   -0.013025  -0.030907  -0.081329  -0.038761   0.004089
   43  H  3  Z    0.014114   0.042971   0.057755   0.046066  -0.111758
   44  H  4  S   -0.058231   0.145930   0.007711  -0.001981  -0.001683
   45  H  4  S   -0.105048   0.242311  -0.484631  -0.230627   0.540891
   46  H  4  X    0.005506   0.001826   0.000056  -0.001420   0.001586
   47  H  4  Y   -0.001634   0.007050   0.000160  -0.001454  -0.001285
   48  H  4  Z   -0.002696   0.002776   0.000734  -0.002515   0.000449
   49  H  4  S   -0.008831   0.034117  -0.284270  -0.307758   1.299548
   50  H  4  X   -0.008929  -0.005963  -0.001991   0.005257   0.006448
   51  H  4  Y   -0.013024   0.030908  -0.081330  -0.038760   0.004089
   52  H  4  Z   -0.014112   0.042973  -0.057758  -0.046064   0.111759
   53  C  5  S   -0.002443   0.000000  -0.010937   0.000108   0.000144
   54  C  5  S    0.031700  -0.000001   0.000579  -0.009311   0.025549
   55  C  5  S    0.119079  -0.000007   0.458760   0.012465   0.078212
   56  C  5  X   -0.336723   0.000006   0.016259  -0.000783   0.027887
   57  C  5  Y   -0.039362   0.000006   0.037796  -0.028658   0.007912
   58  C  5  Z    0.000004   0.259434   0.000000  -0.000000  -0.000000
   59  C  5  X   -0.173002   0.000006   0.173213  -0.556532  -0.081172
   60  C  5  Y   -0.034487   0.000003   0.098228   0.253646   0.620451
   61  C  5  Z   -0.000001  -0.026455  -0.000002   0.000003  -0.000003
   62  C  5 XX    0.029353  -0.000001  -0.002087   0.006920   0.000169
   63  C  5 YY   -0.015346  -0.000000   0.001623  -0.003589  -0.005668
   64  C  5 ZZ   -0.014008   0.000001   0.000464  -0.003331   0.005499
   65  C  5 XY   -0.001329   0.000000  -0.002312   0.000310   0.004548
   66  C  5 XZ    0.000000   0.019830   0.000000   0.000000  -0.000000
   67  C  5 YZ    0.000000   0.024304  -0.000000   0.000000  -0.000000
   68  C  5  S   -0.006332  -0.000006   0.953135   0.777454   1.817987
   69  C  5  X   -0.023633   0.000001   0.147672  -1.529544   0.086437
   70  C  5  Y   -0.005786   0.000003   0.271754   0.270046   0.519203
   71  C  5  Z   -0.000001  -0.051851  -0.000012   0.000027  -0.000026
   72  C  5 XX    0.009012  -0.000001   0.013409   0.103283   0.008755
   73  C  5 YY   -0.008151   0.000003  -0.014214  -0.139027  -0.068313
   74  C  5 ZZ   -0.000861  -0.000001   0.000805   0.035743   0.059559
   75  C  5 XY   -0.004133   0.000000  -0.003659   0.044475   0.146612
   76  C  5 XZ    0.000001   0.010637  -0.000001   0.000001  -0.000001
   77  C  5 YZ   -0.000002  -0.054491  -0.000002  -0.000001  -0.000002
   78  H  6  S   -0.106977  -0.223699   0.006120  -0.007855   0.004653
   79  H  6  S   -0.069715  -0.357410  -0.448921   0.029294  -0.674394
   80  H  6  X   -0.006367   0.005597  -0.000524   0.002264   0.000801
   81  H  6  Y    0.003463   0.008579   0.000049  -0.000637  -0.002896
   82  H  6  Z   -0.007207  -0.004017   0.000517  -0.001090  -0.000233
   83  H  6  S   -0.000430  -0.038879  -0.526166   0.598650  -1.273288
   84  H  6  X    0.005321   0.034205   0.007489   0.054198   0.059947
   85  H  6  Y    0.010458   0.031421   0.078418   0.005920   0.024456
   86  H  6  Z   -0.005915  -0.056396  -0.073864   0.029562  -0.146967
   87  H  7  S   -0.106968   0.223710   0.006120  -0.007855   0.004653
   88  H  7  S   -0.069701   0.357419  -0.448904   0.029283  -0.674370
   89  H  7  X   -0.006368  -0.005597  -0.000524   0.002264   0.000801
   90  H  7  Y    0.003463  -0.008579   0.000049  -0.000637  -0.002896
   91  H  7  Z    0.007206  -0.004018  -0.000517   0.001090   0.000233
   92  H  7  S   -0.000428   0.038878  -0.526128   0.598580  -1.273220
   93  H  7  X    0.005319  -0.034205   0.007488   0.054198   0.059944
   94  H  7  Y    0.010457  -0.031422   0.078414   0.005922   0.024450
[...]
    2            -0.010664  -0.001037   0.458384   0.000072  -0.009891
    3             0.160476   0.084873   0.069215   0.220805   0.042524
    4             0.160487   0.084863   0.069210   0.220810   0.042519
    5             0.195339   0.390644   0.054630   0.132743   0.288969
    6             0.072574   0.024439  -0.001540   0.101333   0.088999
    7             0.072572   0.024437  -0.001541   0.101333   0.088988
    8             0.195339   0.390644   0.054630   0.132743   0.288969
    9             0.072573   0.024437  -0.001540   0.101334   0.088988
   10             0.072573   0.024439  -0.001540   0.101333   0.089000
   11             0.349215   0.391780   0.351642   0.222904   0.457890
   12            -0.010664  -0.001037   0.458384   0.000072  -0.009891
   13             0.160482   0.084869   0.069210   0.220809   0.042519
   14             0.160482   0.084868   0.069215   0.220804   0.042526

                     16         17

                  2.000000   2.000000

    1             0.140744   0.090033
    2             0.180271  -0.002067
    3             0.023022   0.106764
    4             0.023017   0.106776
    5             0.523011   0.197932
    6             0.054973   0.250268
    7             0.054963   0.250294
    8             0.523010   0.197933
    9             0.054973   0.250281
   10             0.054962   0.250282
   11             0.140744   0.090033
   12             0.180271  -0.002067
   13             0.023021   0.106770
   14             0.023017   0.106770

               ----- POPULATIONS IN EACH AO -----
                             MULLIKEN      LOWDIN
              1  C  1  S      2.00794     1.81653
              2  C  1  S      0.65262     0.42075
              3  C  1  S      0.05904     0.18263
              4  C  1  X      0.68196     0.58193
              5  C  1  Y      0.67735     0.58059
              6  C  1  Z      0.68370     0.57998
              7  C  1  X      0.15839     0.30046
              8  C  1  Y      0.35536     0.27999
              9  C  1  Z      0.15803     0.31643
             10  C  1 XX      0.01240     0.12167
             11  C  1 YY      0.01894     0.11145
             12  C  1 ZZ      0.01082     0.11172
             13  C  1 XY      0.00321     0.01970
             14  C  1 XZ      0.02164     0.00665
             15  C  1 YZ      0.00000     0.04433
             16  C  1  S      0.13552     0.04914
             17  C  1  X     -0.02001     0.03887
             18  C  1  Y     -0.01240     0.03153
             19  C  1  Z      0.01553     0.02826
             20  C  1 XX     -0.02224     0.08206
             21  C  1 YY     -0.00903     0.07933
             22  C  1 ZZ     -0.00793     0.03822
             23  C  1 XY     -0.00292     0.05369
             24  C  1 XZ     -0.01474     0.01677
             25  C  1 YZ      0.00000     0.13409
             26  H  2  S      0.77701     0.54549
             27  H  2  S      0.42141     0.15824
             28  H  2  X      0.01949     0.03514
             29  H  2  Y      0.00479     0.01348
             30  H  2  Z      0.00521     0.01338
             31  H  2  S      0.01606     0.01992
             32  H  2  X     -0.01296     0.08481
             33  H  2  Y     -0.01694     0.05353
             34  H  2  Z     -0.02247     0.06152
             35  H  3  S      0.77774     0.53632
             36  H  3  S      0.30003     0.15290
             37  H  3  X      0.00573     0.01426
             38  H  3  Y      0.00906     0.01921
             39  H  3  Z      0.01491     0.02769
             40  H  3  S      0.00685     0.02084
             41  H  3  X     -0.02009     0.06486
             42  H  3  Y     -0.02633     0.05583
             43  H  3  Z     -0.02754     0.07893
             44  H  4  S      0.77774     0.53632
             45  H  4  S      0.30004     0.15290
             46  H  4  X      0.00573     0.01426
             47  H  4  Y      0.00906     0.01921
             48  H  4  Z      0.01491     0.02769
             49  H  4  S      0.00685     0.02084
             50  H  4  X     -0.02009     0.06486
             51  H  4  Y     -0.02633     0.05583
             52  H  4  Z     -0.02754     0.07893
             53  C  5  S      2.00859     1.81802
             54  C  5  S      0.64960     0.41761
             55  C  5  S      0.13008     0.17477
             56  C  5  X      0.66419     0.57309
             57  C  5  Y      0.67213     0.57340
             58  C  5  Z      0.68911     0.58120
             59  C  5  X      0.46038     0.25336
             60  C  5  Y      0.37208     0.26633
             61  C  5  Z      0.18586     0.30094
             62  C  5 XX      0.01301     0.12224
             63  C  5 YY      0.02103     0.11021
             64  C  5 ZZ      0.01750     0.10904
             65  C  5 XY      0.01286     0.03237
             66  C  5 XZ      0.01888     0.02399
             67  C  5 YZ      0.00000     0.03927
             68  C  5  S     -0.14021     0.04757
             69  C  5  X      0.07719     0.04310
             70  C  5  Y     -0.02434     0.03721
             71  C  5  Z     -0.01173     0.02963
             72  C  5 XX     -0.01662     0.10796
             73  C  5 YY      0.09630     0.07730
             74  C  5 ZZ     -0.00098     0.03778
             75  C  5 XY      0.01532     0.14085
             76  C  5 XZ     -0.00010     0.11376
             77  C  5 YZ      0.00000     0.12409
             78  H  6  S      0.78903     0.53657
             79  H  6  S      0.38739     0.14717
             80  H  6  X      0.00550     0.01435
             81  H  6  Y      0.00825     0.01855
             82  H  6  Z      0.01439     0.02698
             83  H  6  S     -0.00595     0.02029
             84  H  6  X     -0.02457     0.05004
             85  H  6  Y     -0.02663     0.05504
             86  H  6  Z     -0.02025     0.07650
             87  H  7  S      0.78903     0.53657
             88  H  7  S      0.38738     0.14717
             89  H  7  X      0.00550     0.01435
             90  H  7  Y      0.00825     0.01855
             91  H  7  Z      0.01439     0.02698
             92  H  7  S     -0.00595     0.02029
             93  H  7  X     -0.02457     0.05004
             94  H  7  Y     -0.02663     0.05504
             95  H  7  Z     -0.02025     0.07650
             96  C  8  S      2.00859     1.81802
             97  C  8  S      0.64960     0.41761
             98  C  8  S      0.13008     0.17477
             99  C  8  X      0.66419     0.57309
            100  C  8  Y      0.67213     0.57340
            101  C  8  Z      0.68911     0.58120
            102  C  8  X      0.46038     0.25336
            103  C  8  Y      0.37208     0.26633
            104  C  8  Z      0.18586     0.30094
            105  C  8 XX      0.01301     0.12224
            106  C  8 YY      0.02103     0.11021
            107  C  8 ZZ      0.01750     0.10904
            108  C  8 XY      0.01286     0.03237
            109  C  8 XZ      0.01888     0.02399
            110  C  8 YZ      0.00000     0.03927
            111  C  8  S     -0.14021     0.04757
            112  C  8  X      0.07719     0.04310
            113  C  8  Y     -0.02434     0.03721
            114  C  8  Z     -0.01173     0.02963
            115  C  8 XX     -0.01662     0.10796
            116  C  8 YY      0.09630     0.07730
            117  C  8 ZZ     -0.00098     0.03778
            118  C  8 XY      0.01532     0.14085
            119  C  8 XZ     -0.00010     0.11376
            120  C  8 YZ      0.00000     0.12409
            121  H  9  S      0.78903     0.53657
            122  H  9  S      0.38739     0.14717
            123  H  9  X      0.00550     0.01435
            124  H  9  Y      0.00825     0.01855
            125  H  9  Z      0.01439     0.02698
            126  H  9  S     -0.00595     0.02029
            127  H  9  X     -0.02457     0.05004
            128  H  9  Y     -0.02663     0.05504
            129  H  9  Z     -0.02025     0.07650
            130  H 10  S      0.78903     0.53657
            131  H 10  S      0.38738     0.14717
            132  H 10  X      0.00550     0.01435
            133  H 10  Y      0.00825     0.01855
            134  H 10  Z      0.01439     0.02698
            135  H 10  S     -0.00595     0.02029
            136  H 10  X     -0.02457     0.05004
            137  H 10  Y     -0.02663     0.05504
            138  H 10  Z     -0.02025     0.07650
            139  C 11  S      2.00794     1.81653
            140  C 11  S      0.65262     0.42075
            141  C 11  S      0.05904     0.18263
            142  C 11  X      0.68196     0.58193
            143  C 11  Y      0.67735     0.58059
            144  C 11  Z      0.68370     0.57998
            145  C 11  X      0.15839     0.30046
            146  C 11  Y      0.35536     0.27999
            147  C 11  Z      0.15803     0.31643
            148  C 11 XX      0.01240     0.12167
            149  C 11 YY      0.01894     0.11145
            150  C 11 ZZ      0.01082     0.11172
            151  C 11 XY      0.00321     0.01970
            152  C 11 XZ      0.02164     0.00665
            153  C 11 YZ      0.00000     0.04433
            154  C 11  S      0.13552     0.04914
            155  C 11  X     -0.02001     0.03887
            156  C 11  Y     -0.01240     0.03153
            157  C 11  Z      0.01553     0.02826
            158  C 11 XX     -0.02224     0.08206
            159  C 11 YY     -0.00903     0.07933
            160  C 11 ZZ     -0.00793     0.03822
            161  C 11 XY     -0.00292     0.05369
            162  C 11 XZ     -0.01474     0.01677
            163  C 11 YZ      0.00000     0.13409
            164  H 12  S      0.77701     0.54549
            165  H 12  S      0.42141     0.15824
            166  H 12  X      0.01949     0.03514
            167  H 12  Y      0.00479     0.01348
            168  H 12  Z      0.00521     0.01338
            169  H 12  S      0.01606     0.01992
            170  H 12  X     -0.01296     0.08481
            171  H 12  Y     -0.01694     0.05353
            172  H 12  Z     -0.02247     0.06152
            173  H 13  S      0.77774     0.53632
            174  H 13  S      0.30004     0.15290
            175  H 13  X      0.00573     0.01426
            176  H 13  Y      0.00906     0.01921
            177  H 13  Z      0.01491     0.02769
            178  H 13  S      0.00685     0.02084
            179  H 13  X     -0.02009     0.06486
            180  H 13  Y     -0.02633     0.05583
            181  H 13  Z     -0.02754     0.07893
            182  H 14  S      0.77774     0.53632
            183  H 14  S      0.30004     0.15290
            184  H 14  X      0.00573     0.01426
            185  H 14  Y      0.00906     0.01921
            186  H 14  Z      0.01491     0.02769
            187  H 14  S      0.00685     0.02084
            188  H 14  X     -0.02009     0.06486
            189  H 14  Y     -0.02633     0.05583
            190  H 14  Z     -0.02754     0.07893

          ----- MULLIKEN ATOMIC OVERLAP POPULATIONS -----
          (OFF-DIAGONAL ELEMENTS NEED TO BE MULTIPLIED BY 2)

             1           2           3           4           5

    1    4.2369895
    2    0.4013142   1.3227014
    3    0.3009792  -0.2443044   1.2356245
    4    0.3009768  -0.2443081  -0.1789936   1.2356338
    5    0.5159301   0.0481561  -0.0679409  -0.0679461   4.8879379
    6   -0.0696605  -0.0519507   0.1071097  -0.1154568   0.1379149
    7   -0.0696607  -0.0519543  -0.1154559   0.1071109   0.1379164
    8   -0.0828234   0.0261479  -0.0076652  -0.0076622   0.1454848
    9    0.0166483   0.0037756   0.0252181  -0.0217769   0.1223463
   10    0.0166483   0.0037752  -0.0217769   0.0252182   0.1223381
   11   -0.0254737  -0.0303275   0.0258287   0.0258298  -0.0828238
   12   -0.0303273  -0.0058808   0.0072300   0.0072302   0.0261476
   13    0.0258290   0.0072301   0.0054060  -0.0308871  -0.0076623
   14    0.0258290   0.0072300  -0.0308864   0.0054056  -0.0076644

             6           7           8           9          10

    6    1.4034829
    7   -0.3084042   1.4034744
    8    0.1223418   0.1223426   4.8879397
    9    0.0932744  -0.2153565   0.1379148   1.4034788
   10   -0.2153558   0.0932753   0.1379165  -0.3084039   1.4034789
   11    0.0166481   0.0166487   0.5159291  -0.0696616  -0.0696594
   12    0.0037753   0.0037755   0.0481565  -0.0519529  -0.0519522
   13    0.0252181  -0.0217770  -0.0679428   0.1071102  -0.1154569
   14   -0.0217768   0.0252182  -0.0679452  -0.1154558   0.1071104

            11          12          13          14

   11    4.2369899
   12    0.4013138   1.3227010
   13    0.3009776  -0.2443055   1.2356277
   14    0.3009795  -0.2443067  -0.1789936   1.2356298

          TOTAL MULLIKEN AND LOWDIN ATOMIC POPULATIONS
       ATOM         MULL.POP.    CHARGE          LOW.POP.     CHARGE
    1 C             5.563199    0.436801         6.026778   -0.026778
    2 H             1.191605   -0.191605         0.985511    0.014489
    3 H             1.040373   -0.040373         0.970845    0.029155
    4 H             1.040375   -0.040375         0.970845    0.029155
    5 C             5.910135    0.089865         6.155062   -0.155062
    6 H             1.127160   -0.127160         0.945479    0.054521
    7 H             1.127153   -0.127153         0.945480    0.054520
    8 C             5.910135    0.089865         6.155062   -0.155062
    9 H             1.127159   -0.127159         0.945480    0.054520
   10 H             1.127156   -0.127156         0.945480    0.054520
   11 C             5.563199    0.436801         6.026778   -0.026778
   12 H             1.191604   -0.191604         0.985511    0.014489
   13 H             1.040374   -0.040374         0.970845    0.029155
   14 H             1.040374   -0.040374         0.970845    0.029155

          MULLIKEN SPHERICAL HARMONIC POPULATIONS
       ATOM           S       P       D      F      G      H      I    TOTAL
    1 C             2.86    2.70    0.01   0.00   0.00   0.00   0.00    5.56
    2 H             1.21   -0.02    0.00   0.00   0.00   0.00   0.00    1.19
    3 H             1.08   -0.04    0.00   0.00   0.00   0.00   0.00    1.04
    4 H             1.08   -0.04    0.00   0.00   0.00   0.00   0.00    1.04
    5 C             2.65    3.08    0.18   0.00   0.00   0.00   0.00    5.91
    6 H             1.17   -0.04    0.00   0.00   0.00   0.00   0.00    1.13
    7 H             1.17   -0.04    0.00   0.00   0.00   0.00   0.00    1.13
    8 C             2.65    3.08    0.18   0.00   0.00   0.00   0.00    5.91
    9 H             1.17   -0.04    0.00   0.00   0.00   0.00   0.00    1.13
   10 H             1.17   -0.04    0.00   0.00   0.00   0.00   0.00    1.13
   11 C             2.86    2.70    0.01   0.00   0.00   0.00   0.00    5.56
   12 H             1.21   -0.02    0.00   0.00   0.00   0.00   0.00    1.19
   13 H             1.08   -0.04    0.00   0.00   0.00   0.00   0.00    1.04
   14 H             1.08   -0.04    0.00   0.00   0.00   0.00   0.00    1.04

          -------------------------------
          BOND ORDER AND VALENCE ANALYSIS     BOND ORDER THRESHOLD=0.050
          -------------------------------

                   BOND                       BOND                       BOND
  ATOM PAIR DIST  ORDER      ATOM PAIR DIST  ORDER      ATOM PAIR DIST  ORDER
    1   2  1.086  0.952        1   3  1.085  0.907        1   4  1.085  0.907
    1   5  1.531  1.158        1  11  2.944  0.076        2   3  1.750 -0.097
    2   4  1.750 -0.097        3   4  1.754 -0.082        5   6  1.086  0.797
    5   7  1.086  0.797        5   8  1.555  1.405        5   9  2.166  0.094
    5  10  2.166  0.094        6   7  1.730 -0.121        6   8  2.166  0.094
    6  10  2.258 -0.067        7   8  2.166  0.094        7   9  2.258 -0.067
    8   9  1.086  0.797        8  10  1.086  0.797        8  11  1.531  1.158
    9  10  1.730 -0.121       11  12  1.086  0.952       11  13  1.085  0.907
   11  14  1.085  0.907       12  13  1.750 -0.097       12  14  1.750 -0.097
   13  14  1.754 -0.082

                       TOTAL       BONDED        FREE
      ATOM            VALENCE     VALENCE     VALENCE
    1 C                 3.955       3.955       0.000
    2 H                 0.751       0.751      -0.000
    3 H                 0.714       0.714       0.000
    4 H                 0.714       0.714       0.000
    5 C                 4.370       4.370       0.000
    6 H                 0.663       0.663       0.000
    7 H                 0.663       0.663       0.000
    8 C                 4.370       4.370       0.000
    9 H                 0.663       0.663       0.000
   10 H                 0.663       0.663       0.000
   11 C                 3.955       3.955       0.000
   12 H                 0.751       0.751       0.000
   13 H                 0.714       0.714       0.000
   14 H                 0.714       0.714      -0.000

          ---------------------
          ELECTROSTATIC MOMENTS
          ---------------------

 POINT   1           X           Y           Z (BOHR)    CHARGE
                -0.000000    0.000000    0.000000        0.00 (A.U.)
         DX          DY          DZ         /D/  (DEBYE)
    -0.000000    0.088083    0.000003    0.088083
 ...... END OF PROPERTY EVALUATION ......
 CPU     0: STEP CPU TIME=     0.04 TOTAL CPU TIME=       32.4 (    0.5 MIN)
 TOTAL WALL CLOCK TIME=       32.8 SECONDS, CPU UTILIZATION IS  98.87%



 ---------------------------     ------------------------------
 DISTRIBUTED DATA MP2 ENERGY     PROGRAM WRITTEN BY G. FLETCHER
 ---------------------------     ------------------------------

 DDI: Creating Array [0] - 36100 x 91 = 3285100 words.
    THIS CALCULATION IS RUNNING WITH MWORDS=    5, MEMDDI=     100, AND P=    8
 MEMORY USAGE PER CPU IS 8*(MWORDS + MEMDDI/P)/1024 =    0.1 GBYTES.

 MINIMAL REQUIREMENT FOR THIS RUN IS MWORDS=    1, MEMDDI=       3.
 FOR P=    8, THE MEMORY USAGE PER CPU(CORE) WOULD BE    0.0 GBYTES.


      DIRECT 4-INDEX TRANSFORMATION 
      SCHWARZ INEQUALITY TEST SKIPPED     121947 INTEGRAL BLOCKS

 RESULTS OF MOLLER-PLESSET 2ND ORDER CORRECTION ARE
                     E(SCF)=      -157.3050246683
                       E(2)=        -0.6105685612
                     E(MP2)=      -157.9155932296
 SPIN-COMPONENT-SCALED MP2 RESULTS ARE
                      E(2S)=        -0.4752898669
                      E(2T)=        -0.1352786943
                     E(2ST)=        -0.6154407384 = 6/5 * E(2S) + 1/3 * E(2T)
                    SCS-MP2=      -157.9204654067
 ..... DONE WITH MP2 ENERGY .....
 CPU     0: STEP CPU TIME=     9.21 TOTAL CPU TIME=       41.6 (    0.7 MIN)
 TOTAL WALL CLOCK TIME=       42.0 SECONDS, CPU UTILIZATION IS  99.12%
               580000  WORDS OF DYNAMIC MEMORY USED
 EXECUTION OF GAMESS TERMINATED NORMALLY Fri Feb  5 09:59:28 2016
 DDI: 3729224 bytes (3.6 MB / 0 MWords) used by master data server.

 ----------------------------------------
 CPU timing information for all processes
 ========================================
 0: 41.520 + 0.105 = 41.626
 1: 41.285 + 0.70 = 41.356
 2: 41.420 + 0.89 = 41.510
 3: 41.363 + 0.54 = 41.418
 4: 41.403 + 0.90 = 41.494
 5: 41.225 + 0.79 = 41.305
 6: 41.381 + 0.93 = 41.475
 7: 41.325 + 0.66 = 41.392
 ----------------------------------------
 ddikick.x: exited gracefully.
unset echo
----- accounting info -----
Files used on the master node wr30 were:
-rw-r--r-- 1 kkirsc3m fb03-hpc  562667 Feb  5 09:59 /tmp/4606.wr0.wr.inf.h-brs.de/01.dat
-rw-r--r-- 1 kkirsc3m fb03-hpc    1284 Feb  5 09:58 /tmp/4606.wr0.wr.inf.h-brs.de/01.F05
-rw-r--r-- 1 kkirsc3m fb03-hpc 4155440 Feb  5 09:59 /tmp/4606.wr0.wr.inf.h-brs.de/01.F10
ls: No match.
ls: No match.
ls: No match.
Fri Feb  5 09:59:31 CET 2016
0.286u 0.076s 0:45.40 0.7%	0+0k 16+192io 0pf+0w
