----- GAMESS execution script 'rungms' -----
This job is running on host wr30
under operating system Linux at Fri Feb 5 09:59:39 CET 2016
PBS has assigned the following compute nodes to this run:
wr30
Available scratch disk space (Kbyte units) at beginning of the job is
Filesystem     1K-blocks    Used Available Use% Mounted on
/dev/sda2      379797844 8359344 352139224   3% /
GAMESS temporary binary files will be written to /tmp/4607.wr0.wr.inf.h-brs.de
GAMESS supplementary output files will be written to /tmp/4607.wr0.wr.inf.h-brs.de
Copying input file 02.inp to your run's scratch directory...
cp 02.inp /tmp/4607.wr0.wr.inf.h-brs.de/02.F05
unset echo
/usr/local/hpc5/gamess-gnu/ddikick.x /usr/local/hpc5/gamess-gnu/gamess.00.x 02 -ddi 1 8 wr30:cpus=8:netext=.myri -scr /tmp/4607.wr0.wr.inf.h-brs.de

 Distributed Data Interface kickoff program.
 Initiating 8 compute processes on 1 nodes to run the following command:
 /usr/local/hpc5/gamess-gnu/gamess.00.x 02 

          ******************************************************
          *         GAMESS VERSION =  1 MAY 2013 (R1)          *
          *             FROM IOWA STATE UNIVERSITY             *
          * M.W.SCHMIDT, K.K.BALDRIDGE, J.A.BOATZ, S.T.ELBERT, *
          *   M.S.GORDON, J.H.JENSEN, S.KOSEKI, N.MATSUNAGA,   *
          *          K.A.NGUYEN, S.J.SU, T.L.WINDUS,           *
          *       TOGETHER WITH M.DUPUIS, J.A.MONTGOMERY       *
          *         J.COMPUT.CHEM.  14, 1347-1363(1993)        *
          **************** 64 BIT LINUX VERSION ****************

  SINCE 1993, STUDENTS AND POSTDOCS WORKING AT IOWA STATE UNIVERSITY
  AND ALSO IN THEIR VARIOUS JOBS AFTER LEAVING ISU HAVE MADE IMPORTANT
  CONTRIBUTIONS TO THE CODE:
     IVANA ADAMOVIC, CHRISTINE AIKENS, YURI ALEXEEV, POOJA ARORA,
     ANDREY ASADCHEV, ROB BELL, PRADIPTA BANDYOPADHYAY, JONATHAN BENTZ,
     BRETT BODE, GALINA CHABAN, WEI CHEN, CHEOL HO CHOI, PAUL DAY,
     ALBERT DEFUSCO, TIM DUDLEY, DMITRI FEDOROV, GRAHAM FLETCHER,
     MARK FREITAG, KURT GLAESEMANN, DAN KEMP, GRANT MERRILL,
     NORIYUKI MINEZAWA, JONATHAN MULLIN, TAKESHI NAGATA,
     SEAN NEDD, HEATHER NETZLOFF, BOSILJKA NJEGIC, RYAN OLSON, MIKE PAK,
     JIM SHOEMAKER, LYUDMILA SLIPCHENKO, SAROM SOK, JIE SONG,
     TETSUYA TAKETSUGU, SIMON WEBB, SOOHAENG YOO, FEDERICO ZAHARIEV

  ADDITIONAL CODE HAS BEEN PROVIDED BY COLLABORATORS IN OTHER GROUPS:
     IOWA STATE UNIVERSITY:
          JOE IVANIC, LAIMUTIS BYTAUTAS, KLAUS RUEDENBERG
     UNIVERSITY OF TOKYO: KIMIHIKO HIRAO, TAKAHITO NAKAJIMA,
          TAKAO TSUNEDA, MUNEAKI KAMIYA, SUSUMU YANAGISAWA,
          KIYOSHI YAGI, MAHITO CHIBA, SEIKEN TOKURA, NAOAKI KAWAKAMI
     UNIVERSITY OF AARHUS: FRANK JENSEN
     UNIVERSITY OF IOWA: VISVALDAS KAIRYS, HUI LI
     NATIONAL INST. OF STANDARDS AND TECHNOLOGY: WALT STEVENS, DAVID GARMER
     UNIVERSITY OF PISA: BENEDETTA MENNUCCI, JACOPO TOMASI
     UNIVERSITY OF MEMPHIS: HENRY KURTZ, PRAKASHAN KORAMBATH
     UNIVERSITY OF ALBERTA: TOBY ZENG, MARIUSZ KLOBUKOWSKI
     UNIVERSITY OF NEW ENGLAND: MARK SPACKMAN
     MIE UNIVERSITY: HIROAKI UMEDA
     MICHIGAN STATE UNIVERSITY:
          KAROL KOWALSKI, MARTA WLOCH, JEFFREY GOUR, JESSE LUTZ,
          WEI LI, PIOTR PIECUCH
     UNIVERSITY OF SILESIA: MONIKA MUSIAL, STANISLAW KUCHARSKI
     FACULTES UNIVERSITAIRES NOTRE-DAME DE LA PAIX:
          OLIVIER QUINET, BENOIT CHAMPAGNE
     UNIVERSITY OF CALIFORNIA - SANTA BARBARA: BERNARD KIRTMAN
     INSTITUTE FOR MOLECULAR SCIENCE:
          KAZUYA ISHIMURA, MICHIO KATOUDA, AND SHIGERU NAGASE
     UNIVERSITY OF NOTRE DAME: DAN CHIPMAN
     KYUSHU UNIVERSITY:
          HARUYUKI NAKANO,
          FENG LONG GU, JACEK KORCHOWIEC, MARCIN MAKOWSKI, AND YURIKO AOKI,
          HIROTOSHI MORI AND EISAKU MIYOSHI
     PENNSYLVANIA STATE UNIVERSITY:
          TZVETELIN IORDANOV, CHET SWALINA, JONATHAN SKONE,
          SHARON HAMMES-SCHIFFER
     WASEDA UNIVERSITY:
          MASATO KOBAYASHI, TOMOKO AKAMA, TSUGUKI TOUMA,
          TAKESHI YOSHIKAWA, YASUHIRO IKABATA, HIROMI NAKAI
     NANJING UNIVERSITY: SHUHUA LI
     UNIVERSITY OF NEBRASKA:
          PEIFENG SU, DEJUN SI, NANDUN THELLAMUREGE, YALI WANG, HUI LI
     UNIVERSITY OF ZURICH:
          ROBERTO PEVERATI, KIM BALDRIDGE
     N. COPERNICUS UNIVERSITY AND JACKSON STATE UNIVERSITY:
          MARIA BARYSZ


 PARALLEL VERSION RUNNING ON     8 PROCESSORS IN     1 NODES.

 EXECUTION OF GAMESS BEGUN Fri Feb  5 09:59:39 2016

            ECHO OF THE FIRST FEW INPUT CARDS -
 INPUT CARD> $CONTRL  ICHARG=0 MPLEVL=2 ISPHER=1                                            
 INPUT CARD>          RUNTYP=ENERGY SCFTYP=RHF EXETYP=RUN                                   
 INPUT CARD>          MULT=1 UNITS=ANGS MAXIT=200                                           
 INPUT CARD>          COORD=PRINAXIS                       $END                             
 INPUT CARD> $SCF     DIRSCF=.T. CONV=1.0E-08  FDIFF=.F.   $END                             
 INPUT CARD> $SYSTEM  TIMLIM=50000 MWORDS=5 MEMDDI=100     $END                             
 INPUT CARD> $BASIS   GBASIS=ACCD                          $END                             
 INPUT CARD> $GUESS   GUESS=HUCKEL                         $END                             
 INPUT CARD> $DATA                                                                          
 INPUT CARD>Full optimization                                                               
 INPUT CARD> C1                                                                             
 INPUT CARD> C           6.0   1.4841533564  -0.6427621634  -0.0750348240                   
 INPUT CARD> H           1.0   2.5465747626  -0.5257036366   0.1156308708                   
 INPUT CARD> H           1.0   1.1160338153  -1.4167492579   0.5889197478                   
 INPUT CARD> H           1.0   1.3732554544  -1.0001844335  -1.0954137349                   
 INPUT CARD> C           6.0   0.7577921667   0.6856067912   0.1467058524                   
 INPUT CARD> H           1.0   1.2300258788   1.4615461407  -0.4488131099                   
 INPUT CARD> H           1.0   0.9123864084   0.9731386361   1.1847671529                   
 INPUT CARD> C           6.0  -0.7578753586   0.6854823957  -0.1468557967                   
 INPUT CARD> H           1.0  -1.2302043821   1.4614964544   0.4484901321                   
 INPUT CARD> H           1.0  -0.9125026793   0.9727657107  -1.1849810341                   
 INPUT CARD> C           6.0  -1.4840753939  -0.6429261104   0.0751757272                   
 INPUT CARD> H           1.0  -2.5465135193  -0.5260340785  -0.1154989658                   
 INPUT CARD> H           1.0  -1.1158733664  -1.4170089731  -0.5886215353                   
 INPUT CARD> H           1.0  -1.3731201066  -1.0001206364   1.0956281269                   
 INPUT CARD> $END                                                                           
    5000000 WORDS OF MEMORY AVAILABLE

     BASIS OPTIONS
     -------------
     GBASIS=ACCD         IGAUSS=       0      POLAR=NONE    
     NDFUNC=       0     NFFUNC=       0     DIFFSP=       F
     NPFUNC=       0      DIFFS=       F     BASNAM=        


     RUN TITLE
     ---------
 Full optimization                                                               

 THE POINT GROUP OF THE MOLECULE IS C1      
 THE ORDER OF THE PRINCIPAL AXIS IS     0

 THE MOMENTS OF INERTIA ARE (AMU-ANGSTROM**2)
 IXX=    41.064   IYY=    97.789   IZZ=   124.787

 ATOM      ATOMIC                      COORDINATES (BOHR)
           CHARGE         X                   Y                   Z
 C           6.0    -2.8046592654       -1.2147995276        0.1401379139
 H           1.0    -4.8121276304       -0.9937526533       -0.2214738191
 H           1.0    -2.1081244553       -2.6775181359       -1.1139496849
 H           1.0    -2.5962825445       -1.8900057087        2.0685818462
 C           6.0    -1.4319210426        1.2954914336       -0.2782899314
 H           1.0    -2.3251207331        2.7618731282        0.8463471424
 H           1.0    -1.7228424944        1.8386151770       -2.2401869690
 C           6.0     1.4319205525        1.2954914546        0.2782894797
 H           1.0     2.3251218489        2.7618764710       -0.8463418499
 H           1.0     1.7228383993        1.8386108656        2.2401883558
 C           6.0     2.8046598153       -1.2147990346       -0.1401380542
 H           1.0     4.8121328865       -0.9937434579        0.2214422599
 H           1.0     2.1081471699       -2.6775084743        1.1139727260
 H           1.0     2.5962568401       -1.8900227956       -2.0685729567

          INTERNUCLEAR DISTANCES (ANGS.)
          ------------------------------

                1 C          2 H          3 H          4 H          5 C     

   1 C       0.0000000    1.0857234 *  1.0841604 *  1.0868404 *  1.5301417 *
   2 H       1.0857234 *  0.0000000    1.7505462 *  1.7516961 *  2.1605513 *
   3 H       1.0841604 *  1.7505462 *  0.0000000    1.7540435 *  2.1780246 *
   4 H       1.0868404 *  1.7516961 *  1.7540435 *  0.0000000    2.1825554 *
   5 C       1.5301417 *  2.1605513 *  2.1780246 *  2.1825554 *  0.0000000  
   6 H       2.1523021 *  2.4497060 *  3.0617753    2.5492596 *  1.0861535 *
   7 H       2.1272409 *  2.4617376 *  2.4714511 *  3.0505129    1.0881844 *
   8 C       2.6069301 *  3.5292012    2.9107180 *  2.8780121 *  1.5438350 *
   9 H       3.4741503    4.2806332    3.7160264    3.9014760    2.1552746 *
  10 H       3.0961058    3.9877586    3.6015922    3.0208020    2.1553967 *
  11 C       2.9720271 *  4.0325573    2.7610330 *  3.1084164    2.6069305 *
  12 H       4.0325598    5.0983301    3.8345576    4.0681249    3.5292012  
  13 H       2.7610448 *  3.8345695    2.5234923 *  2.5741685 *  2.9107253 *
  14 H       3.1084029    4.0681045    2.5741445 *  3.5132952    2.8780058 *

                6 H          7 H          8 C          9 H         10 H     

   1 C       2.1523021 *  2.1272409 *  2.6069301 *  3.4741503    3.0961058  
   2 H       2.4497060 *  2.4617376 *  3.5292012    4.2806332    3.9877586  
   3 H       3.0617753    2.4714511 *  2.9107180 *  3.7160264    3.6015922  
   4 H       2.5492596 *  3.0505129    2.8780121 *  3.9014760    3.0208020  
   5 C       1.0861535 *  1.0881844 *  1.5438350 *  2.1552746 *  2.1553967 *
   6 H       0.0000000    1.7343648 *  2.1552736 *  2.6187566 *  2.3176018 *
   7 H       1.7343648 *  0.0000000    2.1553979 *  2.3176049 *  2.9909742 *
   8 C       2.1552736 *  2.1553979 *  0.0000000    1.0861534 *  1.0881844 *
   9 H       2.6187566 *  2.3176049 *  1.0861534 *  0.0000000    1.7343645 *
  10 H       2.3176018 *  2.9909742 *  1.0881844 *  1.7343645 *  0.0000000  
  11 C       3.4741493    3.0961085    1.5301417 *  2.1523031 *  2.1272401 *
  12 H       4.2806335    3.9877562    2.1605513 *  2.4497002 *  2.4617441 *
  13 H       3.7160287    3.6016039    2.1780242 *  3.0617749    2.4714424 *
  14 H       3.9014704    3.0208009    2.1825558 *  2.5492688 *  3.0505126  

               11 C         12 H         13 H         14 H     

   1 C       2.9720271 *  4.0325598    2.7610448 *  3.1084029  
   2 H       4.0325573    5.0983301    3.8345695    4.0681045  
   3 H       2.7610330 *  3.8345576    2.5234923 *  2.5741445 *
   4 H       3.1084164    4.0681249    2.5741685 *  3.5132952  
   5 C       2.6069305 *  3.5292012    2.9107253 *  2.8780058 *
   6 H       3.4741493    4.2806335    3.7160287    3.9014704  
   7 H       3.0961085    3.9877562    3.6016039    3.0208009  
   8 C       1.5301417 *  2.1605513 *  2.1780242 *  2.1825558 *
   9 H       2.1523031 *  2.4497002 *  3.0617749    2.5492688 *
  10 H       2.1272401 *  2.4617441 *  2.4714424 *  3.0505126  
  11 C       0.0000000    1.0857234 *  1.0841604 *  1.0868404 *
  12 H       1.0857234 *  0.0000000    1.7505463 *  1.7516960 *
  13 H       1.0841604 *  1.7505463 *  0.0000000    1.7540435 *
  14 H       1.0868404 *  1.7516960 *  1.7540435 *  0.0000000  

  * ... LESS THAN  3.000


     ATOMIC BASIS SET
     ----------------
 THE CONTRACTED PRIMITIVE FUNCTIONS HAVE BEEN UNNORMALIZED
 THE CONTRACTED BASIS FUNCTIONS ARE NOW NORMALIZED TO UNITY

  SHELL TYPE  PRIMITIVE        EXPONENT          CONTRACTION COEFFICIENT(S)

 C         

      1   S       1          6665.0000000    0.000691583963
      1   S       2          1000.0000000    0.005325796153
      1   S       3           228.0000000    0.027060721042
      1   S       4            64.7100000    0.101656846141
      1   S       5            21.0600000    0.274574823617
      1   S       6             7.4950000    0.448294318924
      1   S       7             2.7970000    0.284902610715
      1   S       8             0.5215000    0.015194859206

      2   S       9          6665.0000000   -0.000293269653
      2   S      10          1000.0000000   -0.002318035474
      2   S      11           228.0000000   -0.011499786039
      2   S      12            64.7100000   -0.046826727010
      2   S      13            21.0600000   -0.128466168750
      2   S      14             7.4950000   -0.301266272463
      2   S      15             2.7970000   -0.255630702330
      2   S      16             0.5215000    1.093793361012

      3   S      17             0.1596000    1.000000000000

      4   P      18             9.4390000    0.056979251590
      4   P      19             2.0020000    0.313207211501
      4   P      20             0.5456000    0.760376741738

      5   P      21             0.1517000    1.000000000000

      6   D      22             0.5500000    1.000000000000

      7   S      23             0.0469000    1.000000000000

      8   P      24             0.0404100    1.000000000000

      9   D      25             0.1510000    1.000000000000

 H         

     10   S      26            13.0100000    0.033498726390
     10   S      27             1.9620000    0.234800801174
     10   S      28             0.4446000    0.813682957883

     11   S      29             0.1220000    1.000000000000

     12   P      30             0.7270000    1.000000000000

     13   S      31             0.0297400    1.000000000000

     14   P      32             0.1410000    1.000000000000

 H         

     15   S      33            13.0100000    0.033498726390
     15   S      34             1.9620000    0.234800801174
     15   S      35             0.4446000    0.813682957883

     16   S      36             0.1220000    1.000000000000

     17   P      37             0.7270000    1.000000000000

     18   S      38             0.0297400    1.000000000000

     19   P      39             0.1410000    1.000000000000

 H         

     20   S      40            13.0100000    0.033498726390
     20   S      41             1.9620000    0.234800801174
     20   S      42             0.4446000    0.813682957883

     21   S      43             0.1220000    1.000000000000

     22   P      44             0.7270000    1.000000000000

     23   S      45             0.0297400    1.000000000000

     24   P      46             0.1410000    1.000000000000

 C         

     25   S      47          6665.0000000    0.000691583963
     25   S      48          1000.0000000    0.005325796153
     25   S      49           228.0000000    0.027060721042
     25   S      50            64.7100000    0.101656846141
     25   S      51            21.0600000    0.274574823617
     25   S      52             7.4950000    0.448294318924
     25   S      53             2.7970000    0.284902610715
     25   S      54             0.5215000    0.015194859206

     26   S      55          6665.0000000   -0.000293269653
     26   S      56          1000.0000000   -0.002318035474
     26   S      57           228.0000000   -0.011499786039
     26   S      58            64.7100000   -0.046826727010
     26   S      59            21.0600000   -0.128466168750
     26   S      60             7.4950000   -0.301266272463
     26   S      61             2.7970000   -0.255630702330
     26   S      62             0.5215000    1.093793361012

     27   S      63             0.1596000    1.000000000000

     28   P      64             9.4390000    0.056979251590
     28   P      65             2.0020000    0.313207211501
     28   P      66             0.5456000    0.760376741738

     29   P      67             0.1517000    1.000000000000

     30   D      68             0.5500000    1.000000000000

     31   S      69             0.0469000    1.000000000000

     32   P      70             0.0404100    1.000000000000

     33   D      71             0.1510000    1.000000000000

 H         

     34   S      72            13.0100000    0.033498726390
     34   S      73             1.9620000    0.234800801174
     34   S      74             0.4446000    0.813682957883

     35   S      75             0.1220000    1.000000000000

     36   P      76             0.7270000    1.000000000000

     37   S      77             0.0297400    1.000000000000

     38   P      78             0.1410000    1.000000000000

 H         

     39   S      79            13.0100000    0.033498726390
     39   S      80             1.9620000    0.234800801174
     39   S      81             0.4446000    0.813682957883

     40   S      82             0.1220000    1.000000000000

     41   P      83             0.7270000    1.000000000000

     42   S      84             0.0297400    1.000000000000

     43   P      85             0.1410000    1.000000000000

 C         

     44   S      86          6665.0000000    0.000691583963
     44   S      87          1000.0000000    0.005325796153
     44   S      88           228.0000000    0.027060721042
     44   S      89            64.7100000    0.101656846141
     44   S      90            21.0600000    0.274574823617
     44   S      91             7.4950000    0.448294318924
     44   S      92             2.7970000    0.284902610715
     44   S      93             0.5215000    0.015194859206

     45   S      94          6665.0000000   -0.000293269653
     45   S      95          1000.0000000   -0.002318035474
     45   S      96           228.0000000   -0.011499786039
     45   S      97            64.7100000   -0.046826727010
     45   S      98            21.0600000   -0.128466168750
     45   S      99             7.4950000   -0.301266272463
     45   S     100             2.7970000   -0.255630702330
     45   S     101             0.5215000    1.093793361012

     46   S     102             0.1596000    1.000000000000

     47   P     103             9.4390000    0.056979251590
     47   P     104             2.0020000    0.313207211501
     47   P     105             0.5456000    0.760376741738

     48   P     106             0.1517000    1.000000000000

     49   D     107             0.5500000    1.000000000000

     50   S     108             0.0469000    1.000000000000

     51   P     109             0.0404100    1.000000000000

     52   D     110             0.1510000    1.000000000000

 H         

     53   S     111            13.0100000    0.033498726390
     53   S     112             1.9620000    0.234800801174
     53   S     113             0.4446000    0.813682957883

     54   S     114             0.1220000    1.000000000000

     55   P     115             0.7270000    1.000000000000

     56   S     116             0.0297400    1.000000000000

     57   P     117             0.1410000    1.000000000000

 H         

     58   S     118            13.0100000    0.033498726390
     58   S     119             1.9620000    0.234800801174
     58   S     120             0.4446000    0.813682957883

     59   S     121             0.1220000    1.000000000000

     60   P     122             0.7270000    1.000000000000

     61   S     123             0.0297400    1.000000000000

     62   P     124             0.1410000    1.000000000000

 C         

     63   S     125          6665.0000000    0.000691583963
     63   S     126          1000.0000000    0.005325796153
     63   S     127           228.0000000    0.027060721042
     63   S     128            64.7100000    0.101656846141
     63   S     129            21.0600000    0.274574823617
     63   S     130             7.4950000    0.448294318924
     63   S     131             2.7970000    0.284902610715
     63   S     132             0.5215000    0.015194859206

     64   S     133          6665.0000000   -0.000293269653
     64   S     134          1000.0000000   -0.002318035474
     64   S     135           228.0000000   -0.011499786039
     64   S     136            64.7100000   -0.046826727010
     64   S     137            21.0600000   -0.128466168750
     64   S     138             7.4950000   -0.301266272463
     64   S     139             2.7970000   -0.255630702330
     64   S     140             0.5215000    1.093793361012

     65   S     141             0.1596000    1.000000000000

     66   P     142             9.4390000    0.056979251590
     66   P     143             2.0020000    0.313207211501
     66   P     144             0.5456000    0.760376741738

     67   P     145             0.1517000    1.000000000000

     68   D     146             0.5500000    1.000000000000

     69   S     147             0.0469000    1.000000000000

     70   P     148             0.0404100    1.000000000000

     71   D     149             0.1510000    1.000000000000

 H         

     72   S     150            13.0100000    0.033498726390
     72   S     151             1.9620000    0.234800801174
     72   S     152             0.4446000    0.813682957883

     73   S     153             0.1220000    1.000000000000

     74   P     154             0.7270000    1.000000000000

     75   S     155             0.0297400    1.000000000000

     76   P     156             0.1410000    1.000000000000

 H         

     77   S     157            13.0100000    0.033498726390
     77   S     158             1.9620000    0.234800801174
     77   S     159             0.4446000    0.813682957883

     78   S     160             0.1220000    1.000000000000

     79   P     161             0.7270000    1.000000000000

     80   S     162             0.0297400    1.000000000000

     81   P     163             0.1410000    1.000000000000

 H         

     82   S     164            13.0100000    0.033498726390
     82   S     165             1.9620000    0.234800801174
     82   S     166             0.4446000    0.813682957883

     83   S     167             0.1220000    1.000000000000

     84   P     168             0.7270000    1.000000000000

     85   S     169             0.0297400    1.000000000000

     86   P     170             0.1410000    1.000000000000

 TOTAL NUMBER OF BASIS SET SHELLS             =   86
 NUMBER OF CARTESIAN GAUSSIAN BASIS FUNCTIONS =  190
 NOTE: THIS RUN WILL RESTRICT THE MO VARIATION SPACE TO SPHERICAL HARMONICS.
 THE NUMBER OF ORBITALS KEPT IN THE VARIATIONAL SPACE WILL BE PRINTED LATER.
 NUMBER OF ELECTRONS                          =   34
 CHARGE OF MOLECULE                           =    0
 SPIN MULTIPLICITY                            =    1
 NUMBER OF OCCUPIED ORBITALS (ALPHA)          =   17
 NUMBER OF OCCUPIED ORBITALS (BETA )          =   17
 TOTAL NUMBER OF ATOMS                        =   14
 THE NUCLEAR REPULSION ENERGY IS      132.8517395403

     $CONTRL OPTIONS
     ---------------
 SCFTYP=RHF          RUNTYP=ENERGY       EXETYP=RUN     
 MPLEVL=       2     CITYP =NONE         CCTYP =NONE         VBTYP =NONE    
 DFTTYP=NONE         TDDFT =NONE    
 MULT  =       1     ICHARG=       0     NZVAR =       0     COORD =PRINAXIS
 PP    =NONE         RELWFN=NONE         LOCAL =NONE         NUMGRD=       F
 ISPHER=       1     NOSYM =       0     MAXIT =     200     UNITS =ANGS    
 PLTORB=       F     MOLPLT=       F     AIMPAC=       F     FRIEND=        
 NPRINT=       7     IREST =       0     GEOM  =INPUT   
 NORMF =       0     NORMP =       0     ITOL  =      20     ICUT  =       9
 INTTYP=BEST         GRDTYP=BEST         QMTTOL= 1.0E-06

     $SYSTEM OPTIONS
     ---------------
  REPLICATED MEMORY=     5000000 WORDS (ON EVERY NODE).
 DISTRIBUTED MEMDDI=         100 MILLION WORDS IN AGGREGATE,
 MEMDDI DISTRIBUTED OVER   8 PROCESSORS IS    12500000 WORDS/PROCESSOR.
 TOTAL MEMORY REQUESTED ON EACH PROCESSOR=    17500000 WORDS.
 TIMLIM=       50000.00 MINUTES, OR      34.7 DAYS.
 PARALL= T  BALTYP=  DLB     KDIAG=    0  COREFL= F
 MXSEQ2=     300 MXSEQ3=     150

          ----------------
          PROPERTIES INPUT
          ----------------

     MOMENTS            FIELD           POTENTIAL          DENSITY
 IEMOM =       1   IEFLD =       0   IEPOT =       0   IEDEN =       0
 WHERE =COMASS     WHERE =NUCLEI     WHERE =NUCLEI     WHERE =NUCLEI  
 OUTPUT=BOTH       OUTPUT=BOTH       OUTPUT=BOTH       OUTPUT=BOTH    
 IEMINT=       0   IEFINT=       0                     IEDINT=       0
                                                       MORB  =       0
          EXTRAPOLATION IN EFFECT
          SOSCF IN EFFECT
 ORBITAL PRINTING OPTION: NPREO=     1   190     2     1

     -------------------------------
     INTEGRAL TRANSFORMATION OPTIONS
     -------------------------------
     NWORD  =            0
     CUTOFF = 1.0E-09     MPTRAN =       0
     DIRTRF =       T     AOINTS =DUP     

          ----------------------
          INTEGRAL INPUT OPTIONS
          ----------------------
 NOPK  =       1 NORDER=       0 SCHWRZ=       T

          -----------------------
          MP2 CONTROL INFORMATION
          -----------------------
          NACORE =        4  NBCORE =        4
          LMOMP2 =        F  AOINTS = DUP     
          METHOD =        2  NWORD  =               0
          MP2PRP =        F  OSPT   = NONE    
          CUTOFF = 1.00E-09  CPHFBS = BASISAO 
          CODE   = DDI     

          NUMBER OF CORE -A-  ORBITALS =     4
          NUMBER OF CORE -B-  ORBITALS =     4
          NUMBER OF OCC. -A-  ORBITALS =    17
          NUMBER OF OCC. -B-  ORBITALS =    17
          NUMBER OF MOLECULAR ORBITALS =   190
          NUMBER OF   BASIS  FUNCTIONS =   190


     ------------------------------------------
     THE POINT GROUP IS C1 , NAXIS= 0, ORDER= 1
     ------------------------------------------

 -- VARIATIONAL SPACE WILL BE RESTRICTED TO PURE SPHERICAL HARMONICS ONLY --
 AFTER EXCLUDING CONTAMINANT COMBINATIONS FROM THE CARTESIAN GAUSSIAN BASIS
 SET, THE NUMBER OF SPHERICAL HARMONICS KEPT IN THE VARIATION SPACE IS  182

     DIMENSIONS OF THE SYMMETRY SUBSPACES ARE
 A   =  182

 ..... DONE SETTING UP THE RUN .....
 CPU     0: STEP CPU TIME=     0.03 TOTAL CPU TIME=        0.0 (    0.0 MIN)
 TOTAL WALL CLOCK TIME=        0.0 SECONDS, CPU UTILIZATION IS 100.00%

          ********************
          1 ELECTRON INTEGRALS
          ********************
 ...... END OF ONE-ELECTRON INTEGRALS ......
 CPU     0: STEP CPU TIME=     0.00 TOTAL CPU TIME=        0.0 (    0.0 MIN)
 TOTAL WALL CLOCK TIME=        0.0 SECONDS, CPU UTILIZATION IS  75.00%

          -------------
          GUESS OPTIONS
          -------------
          GUESS =HUCKEL            NORB  =       0          NORDER=       0
          MIX   =       F          PRTMO =       F          PUNMO =       F
          TOLZ  = 1.0E-08          TOLE  = 1.0E-05
          SYMDEN=       F          PURIFY=       F

 INITIAL GUESS ORBITALS GENERATED BY HUCKEL   ROUTINE.
 HUCKEL GUESS REQUIRES    272744 WORDS.

 STATISTICS FOR GENERATION OF SYMMETRY ORBITAL -Q- MATRIX
 NUMBER OF CARTESIAN ATOMIC ORBITALS=        190
 NUMBER OF SPHERICAL CONTAMINANTS DROPPED=     8
 NUMBER OF LINEARLY DEPENDENT MOS DROPPED=     0
 TOTAL NUMBER OF MOS IN VARIATION SPACE=     182

 SYMMETRIES FOR INITIAL GUESS ORBITALS FOLLOW.   BOTH SET(S).
    17 ORBITALS ARE OCCUPIED (    4 CORE ORBITALS).
     5=A        6=A        7=A        8=A        9=A       10=A       11=A   
    12=A       13=A       14=A       15=A       16=A       17=A       18=A   
    19=A       20=A       21=A       22=A       23=A       24=A       25=A   
    26=A       27=A   
 ...... END OF INITIAL ORBITAL SELECTION ......
 CPU     0: STEP CPU TIME=     0.06 TOTAL CPU TIME=        0.1 (    0.0 MIN)
 TOTAL WALL CLOCK TIME=        0.1 SECONDS, CPU UTILIZATION IS  60.00%

                    ----------------------
                    AO INTEGRAL TECHNOLOGY
                    ----------------------
     S,P,L SHELL ROTATED AXIS INTEGRALS, REPROGRAMMED BY
        KAZUYA ISHIMURA (IMS) AND JOSE SIERRA (SYNSTAR).
     S,P,D,L SHELL ROTATED AXIS INTEGRALS PROGRAMMED BY
        KAZUYA ISHIMURA (INSTITUTE FOR MOLECULAR SCIENCE).
     S,P,D,F,G SHELL TO TOTAL QUARTET ANGULAR MOMENTUM SUM 5,
        ERIC PROGRAM BY GRAHAM FLETCHER (ELORET AND NASA ADVANCED
        SUPERCOMPUTING DIVISION, AMES RESEARCH CENTER).
     S,P,D,F,G,L SHELL GENERAL RYS QUADRATURE PROGRAMMED BY
        MICHEL DUPUIS (PACIFIC NORTHWEST NATIONAL LABORATORY).

          --------------------
          2 ELECTRON INTEGRALS
          --------------------

 DIRECT SCF METHOD SKIPS INTEGRAL STORAGE ON DISK.
 DIRECT TRANSFORMATION SKIPS AO INTEGRAL STORAGE ON DISK.
  ...... END OF TWO-ELECTRON INTEGRALS .....
 CPU     0: STEP CPU TIME=     0.02 TOTAL CPU TIME=        0.1 (    0.0 MIN)
 TOTAL WALL CLOCK TIME=        0.2 SECONDS, CPU UTILIZATION IS  64.71%

          --------------------------
                 RHF SCF CALCULATION
          --------------------------

     NUCLEAR ENERGY =       132.8517395403
     MAXIT =  200     NPUNCH=    2
     EXTRAP=T  DAMP=F  SHIFT=F  RSTRCT=F  DIIS=F  DEM=F  SOSCF=T
     DENSITY MATRIX CONV=  2.00E-08
     SOSCF WILL OPTIMIZE    2805 ORBITAL ROTATIONS, SOGTOL=   0.250
     MEMORY REQUIRED FOR RHF ITERS=    319458 WORDS.

 DIRECT SCF CALCULATION, SCHWRZ=T   FDIFF=F,  DIRTHR=  0.00E+00 NITDIR=10
 SCHWARZ INEQUALITY OVERHEAD:     18145 INTEGRALS, T=        0.00

                                                                                   NONZERO     BLOCKS
 ITER EX DEM     TOTAL ENERGY        E CHANGE  DENSITY CHANGE     ORB. GRAD      INTEGRALS    SKIPPED
   1  0  0     -156.9180315239  -156.9180315239   0.977521341   0.000000000      160894576      79431
          ---------------START SECOND ORDER SCF---------------
   2  1  0     -157.2829250192    -0.3648934953   0.146340111   0.020652731      160948179      85884
   3  2  0     -157.3049222920    -0.0219972729   0.020363690   0.008843604      160950699      85576
   4  3  0     -157.3090612447    -0.0041389527   0.011287685   0.001374962      160957865      85424
   5  4  0     -157.3091980761    -0.0001368314   0.002041163   0.000268373      160953195      85681
   6  5  0     -157.3092053461    -0.0000072700   0.000614113   0.000081377      160952143      85729
   7  6  0     -157.3092059777    -0.0000006316   0.000227027   0.000020526      160952240      85726
   8  7  0     -157.3092060217    -0.0000000441   0.000038042   0.000004407      160952392      85714
   9  8  0     -157.3092060235    -0.0000000018   0.000009192   0.000000930      160952401      85713
  10  9  0     -157.3092060236    -0.0000000001   0.000003069   0.000000237      160952392      85714
  11 10  0     -157.3092060236    -0.0000000000   0.000000651   0.000000084      160952392      85714
  12 11  0     -157.3092060236     0.0000000000   0.000000287   0.000000014      160952392      85714
  13 12  0     -157.3092060236    -0.0000000000   0.000000000   0.000000003      160952392      85714

          -----------------
          DENSITY CONVERGED
          -----------------
     TIME TO FORM FOCK OPERATORS=      29.6 SECONDS (       2.3 SEC/ITER)
     FOCK TIME ON FIRST ITERATION=       2.5, LAST ITERATION=       2.3
     TIME TO SOLVE SCF EQUATIONS=       0.1 SECONDS (       0.0 SEC/ITER)

 FINAL RHF ENERGY IS     -157.3092060236 AFTER  13 ITERATIONS

          ------------
          EIGENVECTORS
          ------------

                      1          2          3          4          5
                  -11.2189   -11.2183   -11.2127   -11.2127    -1.0677
                     A          A          A          A          A   
    1  C  1  S    0.032714  -0.037879  -0.706987   0.711142  -0.011529
    2  C  1  S   -0.000252  -0.000209  -0.005663   0.005356   0.161241
    3  C  1  S    0.008044  -0.003229   0.031122  -0.027121   0.049390
    4  C  1  X    0.000024  -0.000122  -0.000004  -0.000062   0.030349
    5  C  1  Y    0.000069  -0.000204   0.000048  -0.000109   0.041564
    6  C  1  Z   -0.000042   0.000015   0.000011   0.000045  -0.006496
    7  C  1  X    0.005027  -0.005480   0.005447  -0.003385  -0.002103
    8  C  1  Y    0.009223  -0.005486   0.008293  -0.005297   0.050773
    9  C  1  Z   -0.000697   0.000569  -0.002059   0.000181  -0.003877
   10  C  1 XX    0.000021  -0.000062  -0.000108  -0.000068  -0.001877
   11  C  1 YY   -0.000016   0.000074   0.000172  -0.000066   0.006842
   12  C  1 ZZ   -0.000005  -0.000011  -0.000064   0.000133  -0.004965
   13  C  1 XY   -0.000019  -0.000048   0.000143  -0.000145   0.008908
   14  C  1 XZ    0.000009  -0.000014  -0.000023   0.000015  -0.001522
   15  C  1 YZ   -0.000008  -0.000039  -0.000023   0.000054  -0.002683
   16  C  1  S   -0.000195   0.009146   0.008173  -0.004377   0.024329
   17  C  1  X    0.000366   0.001412   0.001686   0.000276   0.004669
   18  C  1  Y    0.001020   0.001011   0.000918  -0.000374   0.018413
   19  C  1  Z   -0.000183  -0.000361  -0.000005   0.000149   0.007093
   20  C  1 XX   -0.000117  -0.000507  -0.000672   0.001075  -0.013945
   21  C  1 YY    0.001439  -0.000612   0.001815  -0.001452   0.013620
   22  C  1 ZZ   -0.001322   0.001119  -0.001143   0.000378   0.000325
   23  C  1 XY    0.001976  -0.001724   0.001259  -0.001132  -0.002052
   24  C  1 XZ    0.000626   0.000714  -0.000870  -0.000222  -0.011612
   25  C  1 YZ   -0.000346   0.000597  -0.000916   0.000319  -0.006778
   26  H  2  S   -0.000147   0.000020  -0.000243   0.000320   0.063139
   27  H  2  S    0.002533  -0.004676  -0.002147   0.001939   0.013654
   28  H  2  X   -0.000049   0.000030   0.000191  -0.000120   0.009346
   29  H  2  Y   -0.000037  -0.000020  -0.000127   0.000071  -0.001133
   30  H  2  Z    0.000025   0.000025   0.000046  -0.000051   0.001316
   31  H  2  S    0.000420   0.000807   0.001410   0.000805   0.002062
   32  H  2  X    0.000512  -0.001385  -0.001055   0.000859   0.000257
   33  H  2  Y   -0.000060  -0.000174  -0.000422   0.000352  -0.013136
   34  H  2  Z    0.000386   0.000066  -0.000256  -0.000171  -0.000905
   35  H  3  S    0.000043   0.000115  -0.000426   0.000249   0.067755
   36  H  3  S    0.003807  -0.002991  -0.005474   0.004371   0.044963
   37  H  3  X   -0.000044   0.000033  -0.000119   0.000059  -0.002955
   38  H  3  Y   -0.000074   0.000034   0.000029  -0.000152   0.007541
   39  H  3  Z   -0.000035  -0.000001   0.000109  -0.000163   0.006613
   40  H  3  S    0.000586  -0.000418  -0.000832   0.000072   0.016122
   41  H  3  X   -0.000101   0.000510  -0.000355  -0.001048  -0.004494
   42  H  3  Y    0.000456  -0.000219  -0.001616   0.001404   0.010499
   43  H  3  Z    0.000404  -0.000570  -0.001164   0.000931   0.011555
   44  H  4  S   -0.000155   0.000001  -0.000273   0.000340   0.067915
   45  H  4  S    0.002928  -0.001440  -0.004200   0.006171  -0.004680
   46  H  4  X   -0.000095  -0.000000  -0.000061   0.000014   0.000497
   47  H  4  Y   -0.000080   0.000006   0.000011  -0.000021   0.003266
   48  H  4  Z    0.000045  -0.000010  -0.000136   0.000227  -0.009039
   49  H  4  S    0.000271  -0.000259  -0.000833   0.000218  -0.006725
   50  H  4  X   -0.000598  -0.000114  -0.000085   0.000192   0.002679
   51  H  4  Y    0.000001   0.000122  -0.000624   0.001034  -0.004156
   52  H  4  Z   -0.000591  -0.000100   0.001450  -0.001997   0.002818
   53  C  5  S    0.709145  -0.709367   0.038030  -0.033433  -0.018059
   54  C  5  S    0.005490  -0.006082   0.000366  -0.000599   0.232513
   55  C  5  S   -0.025656   0.038362  -0.005679   0.008426   0.081699
   56  C  5  X    0.000109   0.000174  -0.000001  -0.000114   0.030155
   57  C  5  Y   -0.000004   0.000062   0.000157  -0.000077  -0.028584
   58  C  5  Z    0.000038   0.000028  -0.000035   0.000001   0.011368
   59  C  5  X    0.005570   0.015806   0.008915  -0.003789   0.038754
   60  C  5  Y    0.006538  -0.007721   0.010317  -0.007317  -0.040053
   61  C  5  Z   -0.002650   0.004190  -0.000544   0.002495   0.045544
   62  C  5 XX   -0.000151   0.000165   0.000104  -0.000009   0.009655
   63  C  5 YY   -0.000039  -0.000023  -0.000050  -0.000007  -0.000356
   64  C  5 ZZ    0.000190  -0.000142  -0.000053   0.000016  -0.009299
   65  C  5 XY   -0.000208   0.000060   0.000055  -0.000005   0.006730
   66  C  5 XZ   -0.000032   0.000043   0.000029  -0.000002   0.002474
   67  C  5 YZ    0.000033  -0.000044   0.000022   0.000018  -0.001583
   68  C  5  S   -0.004823  -0.007505   0.009381  -0.000681  -0.039748
   69  C  5  X    0.000692   0.000767   0.004046  -0.000273   0.007369
   70  C  5  Y    0.000498   0.002646   0.001139  -0.000294   0.003270
   71  C  5  Z    0.000150  -0.000236   0.000196  -0.000045  -0.013170
   72  C  5 XX    0.000755   0.004165   0.000996  -0.000292   0.004628
   73  C  5 YY   -0.001492  -0.000077  -0.002478   0.001260   0.006449
   74  C  5 ZZ    0.000737  -0.004087   0.001482  -0.000968  -0.011077
   75  C  5 XY   -0.001735   0.000361  -0.003160   0.001869   0.004076
   76  C  5 XZ   -0.000352   0.001711   0.000521  -0.000001   0.023401
   77  C  5 YZ    0.001238  -0.000581   0.000203  -0.000584  -0.019815
   78  H  6  S    0.000152  -0.000264   0.000097  -0.000121   0.097401
   79  H  6  S    0.004672   0.002878  -0.004484   0.002525   0.043704
   80  H  6  X   -0.000101  -0.000004  -0.000037   0.000013   0.005904
   81  H  6  Y    0.000073  -0.000117  -0.000061   0.000033  -0.009688
   82  H  6  Z    0.000126  -0.000083   0.000002  -0.000015  -0.007530
   83  H  6  S    0.000133  -0.000485   0.000362   0.000306   0.004996
   84  H  6  X    0.000963  -0.000220  -0.000527   0.000053  -0.002312
   85  H  6  Y   -0.001558  -0.000311   0.000646  -0.000325  -0.004577
   86  H  6  Z   -0.000882   0.000272   0.000564  -0.000231  -0.003847
   87  H  7  S    0.000150  -0.000257   0.000145  -0.000028   0.098876
   88  H  7  S    0.003631   0.002935  -0.003682   0.003861   0.030795
   89  H  7  X   -0.000083  -0.000060  -0.000052   0.000033   0.002708
   90  H  7  Y    0.000043   0.000005  -0.000060   0.000015  -0.004394
   91  H  7  Z   -0.000194   0.000109   0.000009   0.000002   0.013390
   92  H  7  S    0.000280  -0.000592  -0.000333   0.000177  -0.008912
   93  H  7  X   -0.000283  -0.000280  -0.000150   0.000324   0.007650
   94  H  7  Y   -0.000578  -0.000157  -0.000050  -0.000189  -0.002336
   95  H  7  Z    0.001324  -0.000225  -0.000638   0.000812   0.004009
   96  C  8  S    0.709141   0.709372  -0.038223  -0.033213  -0.018059
   97  C  8  S    0.005490   0.006082  -0.000370  -0.000597   0.232513
   98  C  8  S   -0.025656  -0.038362   0.005728   0.008393   0.081699
   99  C  8  X   -0.000109   0.000174  -0.000001   0.000114  -0.030155
  100  C  8  Y   -0.000004  -0.000062  -0.000157  -0.000077  -0.028584
  101  C  8  Z   -0.000038   0.000028  -0.000035  -0.000001  -0.011368
  102  C  8  X   -0.005570   0.015806   0.008937   0.003737  -0.038754
  103  C  8  Y    0.006538   0.007721  -0.010360  -0.007258  -0.040052
  104  C  8  Z    0.002650   0.004190  -0.000559  -0.002491  -0.045544
  105  C  8 XX   -0.000151  -0.000165  -0.000104  -0.000009   0.009655
  106  C  8 YY   -0.000039   0.000023   0.000050  -0.000007  -0.000356
  107  C  8 ZZ    0.000190   0.000142   0.000053   0.000015  -0.009299
  108  C  8 XY    0.000208   0.000060   0.000055   0.000005  -0.006730
  109  C  8 XZ   -0.000032  -0.000043  -0.000029  -0.000002   0.002474
  110  C  8 YZ   -0.000033  -0.000044   0.000021  -0.000018   0.001583
  111  C  8  S   -0.004823   0.007505  -0.009384  -0.000627  -0.039745
  112  C  8  X   -0.000692   0.000767   0.004048   0.000250  -0.007369
  113  C  8  Y    0.000498  -0.002646  -0.001141  -0.000287   0.003269
  114  C  8  Z   -0.000150  -0.000236   0.000196   0.000044   0.013170
  115  C  8 XX    0.000755  -0.004165  -0.000997  -0.000286   0.004628
  116  C  8 YY   -0.001492   0.000077   0.002485   0.001246   0.006449
  117  C  8 ZZ    0.000737   0.004087  -0.001488  -0.000959  -0.011077
  118  C  8 XY    0.001735   0.000361  -0.003171  -0.001850  -0.004076
  119  C  8 XZ   -0.000352  -0.001711  -0.000521   0.000002   0.023401
  120  C  8 YZ   -0.001238  -0.000581   0.000207   0.000583   0.019815
  121  H  9  S    0.000152   0.000264  -0.000098  -0.000120   0.097401
  122  H  9  S    0.004672  -0.002878   0.004498   0.002499   0.043704
  123  H  9  X    0.000101  -0.000004  -0.000037  -0.000013  -0.005904
  124  H  9  Y    0.000073   0.000117   0.000061   0.000033  -0.009688
  125  H  9  Z   -0.000126  -0.000083   0.000002   0.000015   0.007530
  126  H  9  S    0.000133   0.000485  -0.000360   0.000308   0.004996
  127  H  9  X   -0.000963  -0.000220  -0.000527  -0.000050   0.002312
  128  H  9  Y   -0.001558   0.000311  -0.000648  -0.000322  -0.004577
  129  H  9  Z    0.000882   0.000272   0.000565   0.000227   0.003848
  130  H 10  S    0.000150   0.000257  -0.000145  -0.000028   0.098876
  131  H 10  S    0.003631  -0.002935   0.003704   0.003840   0.030794
  132  H 10  X    0.000083  -0.000060  -0.000052  -0.000033  -0.002708
  133  H 10  Y    0.000043  -0.000005   0.000060   0.000015  -0.004394
  134  H 10  Z    0.000194   0.000109   0.000009  -0.000003  -0.013390
  135  H 10  S    0.000280   0.000592   0.000334   0.000176  -0.008912
  136  H 10  X    0.000283  -0.000280  -0.000152  -0.000323  -0.007650
  137  H 10  Y   -0.000578   0.000157   0.000049  -0.000189  -0.002336
  138  H 10  Z   -0.001324  -0.000225  -0.000642  -0.000808  -0.004008
  139  C 11  S    0.032714   0.037880   0.711085   0.707045  -0.011529
  140  C 11  S   -0.000252   0.000209   0.005694   0.005323   0.161241
  141  C 11  S    0.008044   0.003229  -0.031278  -0.026941   0.049391
  142  C 11  X   -0.000024  -0.000122  -0.000003   0.000062  -0.030349
  143  C 11  Y    0.000069   0.000204  -0.000049  -0.000109   0.041564
  144  C 11  Z    0.000042   0.000015   0.000011  -0.000045   0.006496
  145  C 11  X   -0.005027  -0.005480   0.005467   0.003354   0.002102
  146  C 11  Y    0.009223   0.005486  -0.008324  -0.005249   0.050773
  147  C 11  Z    0.000697   0.000569  -0.002061  -0.000169   0.003876
  148  C 11 XX    0.000021   0.000062   0.000108  -0.000068  -0.001877
  149  C 11 YY   -0.000016  -0.000074  -0.000173  -0.000065   0.006842
  150  C 11 ZZ   -0.000005   0.000011   0.000065   0.000133  -0.004965
  151  C 11 XY    0.000019  -0.000048   0.000144   0.000144  -0.008908
  152  C 11 XZ    0.000009   0.000014   0.000023   0.000015  -0.001522
  153  C 11 YZ    0.000008  -0.000039  -0.000023  -0.000054   0.002683
  154  C 11  S   -0.000195  -0.009146  -0.008198  -0.004329   0.024328
  155  C 11  X   -0.000366   0.001412   0.001684  -0.000286  -0.004669
  156  C 11  Y    0.001020  -0.001011  -0.000920  -0.000369   0.018413
  157  C 11  Z    0.000183  -0.000361  -0.000005  -0.000149  -0.007093
  158  C 11 XX   -0.000117   0.000507   0.000678   0.001071  -0.013945
  159  C 11 YY    0.001439   0.000612  -0.001824  -0.001442   0.013620
  160  C 11 ZZ   -0.001322  -0.001119   0.001145   0.000371   0.000325
  161  C 11 XY   -0.001976  -0.001724   0.001266   0.001125   0.002052
  162  C 11 XZ    0.000626  -0.000714   0.000869  -0.000227  -0.011613
  163  C 11 YZ    0.000346   0.000597  -0.000918  -0.000313   0.006778
  164  H 12  S   -0.000147  -0.000020   0.000245   0.000319   0.063139
  165  H 12  S    0.002533   0.004675   0.002159   0.001927   0.013654
  166  H 12  X    0.000049   0.000030   0.000192   0.000119  -0.009346
  167  H 12  Y   -0.000037   0.000020   0.000127   0.000071  -0.001133
  168  H 12  Z   -0.000025   0.000025   0.000046   0.000051  -0.001316
  169  H 12  S    0.000420  -0.000807  -0.001406   0.000813   0.002062
  170  H 12  X   -0.000512  -0.001384  -0.001060  -0.000853  -0.000257
  171  H 12  Y   -0.000060   0.000174   0.000424   0.000349  -0.013136
  172  H 12  Z   -0.000386   0.000066  -0.000255   0.000172   0.000905
  173  H 13  S    0.000043  -0.000115   0.000428   0.000247   0.067755
  174  H 13  S    0.003807   0.002991   0.005499   0.004339   0.044963
  175  H 13  X    0.000044   0.000033  -0.000119  -0.000059   0.002955
  176  H 13  Y   -0.000074  -0.000034  -0.000030  -0.000152   0.007541
  177  H 13  Z    0.000035  -0.000001   0.000110   0.000163  -0.006613
  178  H 13  S    0.000586   0.000418   0.000832   0.000067   0.016122
  179  H 13  X    0.000101   0.000510  -0.000349   0.001050   0.004494
  180  H 13  Y    0.000456   0.000219   0.001624   0.001395   0.010499
  181  H 13  Z   -0.000404  -0.000570  -0.001170  -0.000924  -0.011555
  182  H 14  S   -0.000155  -0.000001   0.000275   0.000339   0.067915
  183  H 14  S    0.002928   0.001440   0.004235   0.006147  -0.004681
  184  H 14  X    0.000095  -0.000000  -0.000061  -0.000014  -0.000497
  185  H 14  Y   -0.000080  -0.000006  -0.000011  -0.000021   0.003266
  186  H 14  Z   -0.000045  -0.000010  -0.000138  -0.000226   0.009039
  187  H 14  S    0.000271   0.000259   0.000834   0.000213  -0.006725
  188  H 14  X    0.000598  -0.000114  -0.000086  -0.000191  -0.002679
  189  H 14  Y    0.000001  -0.000122   0.000630   0.001030  -0.004157
  190  H 14  Z    0.000591  -0.000100   0.001461   0.001988  -0.002818

                      6          7          8          9         10
                   -0.9767    -0.8796    -0.7728    -0.6309    -0.6142
                     A          A          A          A          A   
    1  C  1  S    0.014908  -0.008892   0.003543  -0.000386  -0.002207
    2  C  1  S   -0.239061   0.210384  -0.124876  -0.011427   0.013170
    3  C  1  S   -0.006662  -0.004695  -0.064761   0.059554  -0.006404
    4  C  1  X   -0.003741  -0.029036   0.041121   0.007692  -0.222012
    5  C  1  Y   -0.029070  -0.058115   0.115192   0.066681   0.058782
    6  C  1  Z    0.006262   0.005736  -0.031990   0.160931   0.011765
    7  C  1  X    0.020407  -0.022411  -0.001362   0.026102  -0.037555
    8  C  1  Y    0.041495  -0.078248   0.069361   0.057458   0.010269
    9  C  1  Z   -0.002540   0.021043  -0.005531   0.046352  -0.014719
   10  C  1 XX    0.001759   0.000839  -0.005099  -0.004494   0.007584
   11  C  1 YY   -0.005473  -0.004687   0.011986   0.002977  -0.002350
   12  C  1 ZZ    0.003714   0.003848  -0.006886   0.001517  -0.005234
   13  C  1 XY   -0.004102  -0.006454   0.007665   0.004625  -0.005729
   14  C  1 XZ    0.000582   0.000915  -0.001747   0.007255   0.006597
   15  C  1 YZ    0.001465   0.001684  -0.004485  -0.001112  -0.004262
   16  C  1  S   -0.011882   0.090445  -0.055025  -0.018458  -0.048311
   17  C  1  X   -0.014678   0.016107  -0.019872  -0.004357  -0.010640
   18  C  1  Y   -0.003578   0.020177  -0.006627   0.006497  -0.006365
   19  C  1  Z   -0.001050   0.003544   0.001819   0.005500   0.005227
   20  C  1 XX    0.013657   0.016104   0.000361   0.009659  -0.013989
   21  C  1 YY   -0.008625  -0.015477  -0.000942   0.013390  -0.000667
   22  C  1 ZZ   -0.005032  -0.000627   0.000582  -0.023049   0.014656
   23  C  1 XY    0.013051  -0.001885   0.001884  -0.013700   0.015925
   24  C  1 XZ   -0.005156   0.002332  -0.000739  -0.019700  -0.018272
   25  C  1 YZ    0.000271   0.001044  -0.004789   0.012215   0.011080
   26  H  2  S   -0.118302   0.121254  -0.085096  -0.031079   0.199846
   27  H  2  S   -0.045774   0.022178  -0.058134  -0.007716   0.138930
   28  H  2  X   -0.015493   0.015085  -0.008617  -0.002425   0.011213
   29  H  2  Y    0.002068  -0.002723   0.002812   0.001424   0.000169
   30  H  2  Z   -0.003089   0.002876  -0.002262   0.003463   0.003496
   31  H  2  S   -0.005006   0.008023  -0.015265  -0.004806  -0.005702
   32  H  2  X   -0.012496   0.013854  -0.018289   0.003711   0.019787
   33  H  2  Y    0.007534   0.008198  -0.006287  -0.010845  -0.002218
   34  H  2  Z   -0.005494  -0.001126  -0.002809  -0.012720   0.000893
   35  H  3  S   -0.108230   0.129568  -0.101135  -0.128071  -0.101807
   36  H  3  S    0.040442   0.024561   0.023430  -0.065909  -0.072201
   37  H  3  X    0.004740  -0.006674   0.004486   0.004269  -0.003434
   38  H  3  Y   -0.010847   0.010002  -0.006285  -0.006160  -0.003999
   39  H  3  Z   -0.008800   0.009582  -0.008132  -0.003528  -0.004296
   40  H  3  S   -0.003795   0.004355   0.002965   0.009197   0.006648
   41  H  3  X    0.004846  -0.006367  -0.001486  -0.007766   0.012394
   42  H  3  Y    0.012158   0.007910   0.003808  -0.001298  -0.010247
   43  H  3  Z    0.011237   0.005264   0.010075  -0.012246  -0.001592
   44  H  4  S   -0.107984   0.122880  -0.114057   0.107168  -0.019017
   45  H  4  S   -0.001958   0.008810  -0.029286   0.057610   0.010477
   46  H  4  X    0.002032  -0.002569   0.002305  -0.000727  -0.006596
   47  H  4  Y   -0.005343   0.004048  -0.001712   0.004510   0.000939
   48  H  4  Z    0.014349  -0.014415   0.011550  -0.003401   0.001133
   49  H  4  S   -0.000005  -0.004413   0.000775   0.000220  -0.003047
   50  H  4  X    0.005998  -0.000023   0.001356  -0.002934   0.012143
   51  H  4  Y    0.000297   0.004269  -0.003698  -0.009738  -0.002116
   52  H  4  Z    0.002816  -0.003295   0.008011  -0.001947  -0.008597
   53  C  5  S    0.009603   0.005353  -0.004386   0.000095  -0.000891
   54  C  5  S   -0.144412  -0.156074   0.207558   0.018844  -0.020754
   55  C  5  S   -0.011382   0.016831   0.037195   0.013433  -0.072915
   56  C  5  X    0.075625  -0.077483  -0.086386  -0.054549  -0.172618
   57  C  5  Y    0.043256  -0.090481   0.066543   0.035271   0.145422
   58  C  5  Z   -0.000448   0.001624  -0.052476   0.238304  -0.002032
   59  C  5  X    0.179321  -0.097794  -0.023992   0.040559  -0.086435
   60  C  5  Y    0.162520  -0.094043  -0.010445   0.031540   0.068511
   61  C  5  Z    0.004636  -0.000514  -0.021527   0.093608  -0.003292
   62  C  5 XX    0.009218  -0.010090  -0.010846   0.000129  -0.004809
   63  C  5 YY   -0.011987   0.012313   0.000395   0.005269  -0.001522
   64  C  5 ZZ    0.002769  -0.002223   0.010451  -0.005398   0.006331
   65  C  5 XY   -0.010820   0.006740  -0.007084  -0.005454   0.002768
   66  C  5 XZ    0.003963  -0.004429  -0.004125  -0.001746  -0.007723
   67  C  5 YZ    0.002590  -0.003982   0.001616   0.005897   0.006269
   68  C  5  S    0.078748  -0.087983  -0.005939   0.000227   0.025864
   69  C  5  X    0.037084   0.003598  -0.017674  -0.007478  -0.007183
   70  C  5  Y   -0.000009   0.014521  -0.007622  -0.006788  -0.012267
   71  C  5  Z    0.005638  -0.011429  -0.002015   0.000280  -0.004925
   72  C  5 XX    0.041800  -0.017970   0.007894   0.005708   0.030626
   73  C  5 YY   -0.066984   0.013483   0.021883  -0.037977  -0.019629
   74  C  5 ZZ    0.025184   0.004487  -0.029776   0.032270  -0.010997
   75  C  5 XY    0.009572   0.021327  -0.006371  -0.008587   0.012958
   76  C  5 XZ    0.011067  -0.009726   0.004330   0.020368  -0.013350
   77  C  5 YZ    0.015861   0.002069  -0.012282  -0.015601  -0.020745
   78  H  6  S   -0.074265  -0.100047   0.155209   0.163315   0.139523
   79  H  6  S   -0.007371   0.005869   0.105635   0.074923   0.037930
   80  H  6  X   -0.004333  -0.005560   0.006310   0.004561   0.002116
   81  H  6  Y    0.007253   0.007348  -0.010974  -0.008930  -0.004092
   82  H  6  Z    0.004862   0.006427  -0.010303  -0.001962  -0.006519
   83  H  6  S    0.015026   0.000069   0.001848  -0.003630   0.010901
   84  H  6  X   -0.012285   0.007617   0.020511   0.004534   0.008042
   85  H  6  Y    0.001606   0.004098  -0.028227   0.008759   0.014603
   86  H  6  Z   -0.010098  -0.004419   0.000194  -0.013089   0.002498
   87  H  7  S   -0.072936  -0.089940   0.172268  -0.167162   0.040735
   88  H  7  S   -0.028084  -0.017988   0.074933  -0.058432   0.052984
   89  H  7  X   -0.001074  -0.001944   0.000530  -0.003370  -0.004297
   90  H  7  Y    0.001837   0.001694  -0.003716   0.004884   0.002432
   91  H  7  Z   -0.008660  -0.010449   0.016005  -0.006542   0.004373
   92  H  7  S    0.010946  -0.006745   0.001188  -0.001930   0.001817
   93  H  7  X   -0.008221   0.004659   0.006641   0.010363   0.007755
   94  H  7  Y    0.001996   0.010335  -0.009569  -0.008281  -0.012356
   95  H  7  Z   -0.000270  -0.004080   0.007295   0.005235   0.016169
   96  C  8  S   -0.009603   0.005353   0.004386  -0.000095  -0.000891
   97  C  8  S    0.144412  -0.156074  -0.207558  -0.018844  -0.020754
   98  C  8  S    0.011382   0.016832  -0.037195  -0.013432  -0.072913
   99  C  8  X    0.075625   0.077483  -0.086385  -0.054549   0.172619
  100  C  8  Y   -0.043256  -0.090481  -0.066543  -0.035272   0.145422
  101  C  8  Z   -0.000448  -0.001624  -0.052476   0.238304   0.002032
  102  C  8  X    0.179321   0.097793  -0.023992   0.040559   0.086433
  103  C  8  Y   -0.162520  -0.094043   0.010446  -0.031540   0.068509
  104  C  8  Z    0.004635   0.000514  -0.021527   0.093609   0.003292
  105  C  8 XX   -0.009218  -0.010090   0.010846  -0.000129  -0.004809
  106  C  8 YY    0.011987   0.012313  -0.000395  -0.005269  -0.001522
  107  C  8 ZZ   -0.002769  -0.002223  -0.010451   0.005398   0.006331
  108  C  8 XY   -0.010820  -0.006740  -0.007084  -0.005454  -0.002768
  109  C  8 XZ   -0.003963  -0.004429   0.004125   0.001746  -0.007723
  110  C  8 YZ    0.002590   0.003982   0.001616   0.005897  -0.006269
  111  C  8  S   -0.078748  -0.087983   0.005939  -0.000225   0.025859
  112  C  8  X    0.037084  -0.003598  -0.017674  -0.007478   0.007184
  113  C  8  Y    0.000010   0.014521   0.007622   0.006788  -0.012267
  114  C  8  Z    0.005638   0.011429  -0.002015   0.000280   0.004926
  115  C  8 XX   -0.041801  -0.017970  -0.007894  -0.005709   0.030627
  116  C  8 YY    0.066985   0.013483  -0.021882   0.037978  -0.019629
  117  C  8 ZZ   -0.025184   0.004487   0.029776  -0.032269  -0.010997
  118  C  8 XY    0.009572  -0.021327  -0.006371  -0.008588  -0.012957
  119  C  8 XZ   -0.011067  -0.009726  -0.004329  -0.020367  -0.013351
  120  C  8 YZ    0.015861  -0.002069  -0.012282  -0.015601   0.020745
  121  H  9  S    0.074264  -0.100047  -0.155209  -0.163315   0.139524
  122  H  9  S    0.007370   0.005868  -0.105636  -0.074922   0.037933
  123  H  9  X   -0.004333   0.005560   0.006310   0.004561  -0.002116
  124  H  9  Y   -0.007253   0.007348   0.010974   0.008930  -0.004092
  125  H  9  Z    0.004862  -0.006427  -0.010303  -0.001962   0.006519
  126  H  9  S   -0.015026   0.000069  -0.001848   0.003630   0.010901
  127  H  9  X   -0.012284  -0.007617   0.020512   0.004534  -0.008043
  128  H  9  Y   -0.001606   0.004098   0.028227  -0.008759   0.014602
  129  H  9  Z   -0.010098   0.004419   0.000194  -0.013089  -0.002498
  130  H 10  S    0.072936  -0.089940  -0.172268   0.167162   0.040734
  131  H 10  S    0.028084  -0.017988  -0.074932   0.058430   0.052983
  132  H 10  X   -0.001074   0.001944   0.000530  -0.003370   0.004297
  133  H 10  Y   -0.001837   0.001694   0.003716  -0.004884   0.002432
  134  H 10  Z   -0.008660   0.010449   0.016005  -0.006542  -0.004373
  135  H 10  S   -0.010946  -0.006745  -0.001188   0.001930   0.001817
  136  H 10  X   -0.008221  -0.004659   0.006641   0.010364  -0.007755
  137  H 10  Y   -0.001996   0.010335   0.009568   0.008281  -0.012356
  138  H 10  Z   -0.000270   0.004080   0.007295   0.005235  -0.016169
  139  C 11  S   -0.014908  -0.008892  -0.003543   0.000386  -0.002207
  140  C 11  S    0.239061   0.210383   0.124876   0.011427   0.013171
  141  C 11  S    0.006663  -0.004694   0.064762  -0.059554  -0.006404
  142  C 11  X   -0.003741   0.029036   0.041121   0.007692   0.222012
  143  C 11  Y    0.029070  -0.058115  -0.115192  -0.066681   0.058782
  144  C 11  Z    0.006262  -0.005736  -0.031990   0.160931  -0.011764
  145  C 11  X    0.020408   0.022412  -0.001362   0.026103   0.037556
  146  C 11  Y   -0.041495  -0.078248  -0.069361  -0.057458   0.010269
  147  C 11  Z   -0.002540  -0.021043  -0.005531   0.046352   0.014718
  148  C 11 XX   -0.001759   0.000839   0.005099   0.004494   0.007584
  149  C 11 YY    0.005473  -0.004687  -0.011986  -0.002977  -0.002350
  150  C 11 ZZ   -0.003714   0.003848   0.006886  -0.001516  -0.005234
  151  C 11 XY   -0.004102   0.006454   0.007665   0.004625   0.005730
  152  C 11 XZ   -0.000582   0.000915   0.001747  -0.007255   0.006596
  153  C 11 YZ    0.001465  -0.001684  -0.004485  -0.001112   0.004262
  154  C 11  S    0.011882   0.090446   0.055024   0.018456  -0.048310
  155  C 11  X   -0.014678  -0.016108  -0.019872  -0.004357   0.010639
  156  C 11  Y    0.003578   0.020177   0.006627  -0.006497  -0.006365
  157  C 11  Z   -0.001050  -0.003543   0.001820   0.005500  -0.005227
  158  C 11 XX   -0.013658   0.016104  -0.000361  -0.009659  -0.013990
  159  C 11 YY    0.008626  -0.015477   0.000943  -0.013390  -0.000667
  160  C 11 ZZ    0.005032  -0.000627  -0.000582   0.023049   0.014657
  161  C 11 XY    0.013051   0.001885   0.001884  -0.013699  -0.015925
  162  C 11 XZ    0.005156   0.002333   0.000740   0.019701  -0.018272
  163  C 11 YZ    0.000271  -0.001044  -0.004789   0.012215  -0.011080
  164  H 12  S    0.118302   0.121254   0.085096   0.031077   0.199847
  165  H 12  S    0.045774   0.022178   0.058135   0.007713   0.138932
  166  H 12  X   -0.015493  -0.015085  -0.008617  -0.002425  -0.011213
  167  H 12  Y   -0.002068  -0.002723  -0.002812  -0.001424   0.000169
  168  H 12  Z   -0.003089  -0.002876  -0.002262   0.003463  -0.003496
  169  H 12  S    0.005006   0.008023   0.015265   0.004806  -0.005701
  170  H 12  X   -0.012496  -0.013853  -0.018290   0.003712  -0.019787
  171  H 12  Y   -0.007535   0.008198   0.006287   0.010845  -0.002218
  172  H 12  Z   -0.005494   0.001125  -0.002809  -0.012720  -0.000893
  173  H 13  S    0.108230   0.129568   0.101135   0.128072  -0.101804
  174  H 13  S   -0.040441   0.024560  -0.023430   0.065910  -0.072199
  175  H 13  X    0.004740   0.006674   0.004486   0.004269   0.003434
  176  H 13  Y    0.010847   0.010002   0.006285   0.006160  -0.003998
  177  H 13  Z   -0.008801  -0.009582  -0.008132  -0.003529   0.004296
  178  H 13  S    0.003795   0.004355  -0.002965  -0.009197   0.006648
  179  H 13  X    0.004846   0.006367  -0.001486  -0.007766  -0.012394
  180  H 13  Y   -0.012158   0.007909  -0.003808   0.001298  -0.010247
  181  H 13  Z    0.011237  -0.005264   0.010076  -0.012247   0.001592
  182  H 14  S    0.107984   0.122880   0.114057  -0.107168  -0.019021
  183  H 14  S    0.001958   0.008810   0.029286  -0.057610   0.010470
  184  H 14  X    0.002032   0.002570   0.002305  -0.000727   0.006596
  185  H 14  Y    0.005343   0.004048   0.001712  -0.004510   0.000939
  186  H 14  Z    0.014349   0.014415   0.011550  -0.003401  -0.001133
  187  H 14  S    0.000005  -0.004414  -0.000775  -0.000220  -0.003047
  188  H 14  X    0.005998   0.000023   0.001357  -0.002934  -0.012144
  189  H 14  Y   -0.000297   0.004269   0.003698   0.009738  -0.002116
  190  H 14  Z    0.002815   0.003295   0.008011  -0.001947   0.008595

                     11         12         13         14         15
                   -0.5685    -0.5362    -0.5279    -0.5078    -0.4626
                     A          A          A          A          A   
    1  C  1  S   -0.000655   0.000216  -0.000123  -0.000961  -0.001787
    2  C  1  S   -0.004261   0.016842   0.015502  -0.012799   0.038241
    3  C  1  S    0.046615   0.043415  -0.031873  -0.019524   0.128600
    4  C  1  X   -0.011840   0.023644   0.284652  -0.086690   0.071517
    5  C  1  Y    0.029816   0.274320  -0.086706   0.003287   0.266272
    6  C  1  Z   -0.256030   0.044750   0.072810   0.238953  -0.006355
    7  C  1  X    0.018477   0.041128   0.055533  -0.016040   0.120815
    8  C  1  Y    0.033340   0.103685   0.020210  -0.004114   0.199628
    9  C  1  Z   -0.072083  -0.001447  -0.005498   0.027862  -0.025440
   10  C  1 XX    0.004997   0.003942  -0.022641  -0.000587   0.005024
   11  C  1 YY    0.006355   0.005124   0.009162  -0.011823   0.003587
   12  C  1 ZZ   -0.011352  -0.009066   0.013479   0.012410  -0.008611
   13  C  1 XY   -0.001206   0.015029   0.004019   0.000704   0.016273
   14  C  1 XZ   -0.006690   0.002353  -0.007363   0.004459  -0.000484
   15  C  1 YZ    0.005240  -0.010582  -0.000724  -0.019700  -0.008426
   16  C  1  S   -0.016662  -0.050419   0.035815   0.015907  -0.084846
   17  C  1  X    0.003623  -0.009169  -0.023612  -0.010421   0.000927
   18  C  1  Y   -0.003775  -0.005768   0.014992   0.007575  -0.001088
   19  C  1  Z   -0.014808  -0.001152  -0.011587  -0.003707  -0.001480
   20  C  1 XX   -0.015372  -0.011407   0.041026   0.023198   0.008613
   21  C  1 YY    0.001734   0.005865  -0.002725  -0.004477  -0.001194
   22  C  1 ZZ    0.013637   0.005543  -0.038302  -0.018721  -0.007420
   23  C  1 XY    0.003757  -0.001065  -0.005500   0.005165   0.025185
   24  C  1 XZ    0.023061  -0.012483   0.016947  -0.019141  -0.009239
   25  C  1 YZ   -0.010048   0.006779  -0.010013   0.012899   0.001900
   26  H  2  S    0.052368   0.012769  -0.278963   0.033772  -0.008817
   27  H  2  S    0.053547   0.065297  -0.266555  -0.018571   0.044696
   28  H  2  X    0.003730   0.000374  -0.012877   0.000804   0.000475
   29  H  2  Y    0.000014   0.007618  -0.001365   0.000324   0.008572
   30  H  2  Z   -0.006466   0.001605  -0.001111   0.008205  -0.000487
   31  H  2  S   -0.001214  -0.011591  -0.024250  -0.002914   0.015331
   32  H  2  X    0.007476   0.015183  -0.036244  -0.006957   0.010908
   33  H  2  Y   -0.006810  -0.006270   0.008063   0.004394   0.000903
   34  H  2  Z    0.014948   0.000408  -0.008016  -0.011485   0.000765
   35  H  3  S    0.113919  -0.193217   0.111000  -0.185902  -0.134607
   36  H  3  S    0.055848  -0.163385   0.149387  -0.172350  -0.069308
   37  H  3  X   -0.003469   0.005759   0.004237   0.001389   0.004252
   38  H  3  Y    0.007480  -0.004327   0.004058  -0.011367  -0.001283
   39  H  3  Z   -0.001927  -0.008534   0.008047  -0.000742  -0.006098
   40  H  3  S   -0.009498  -0.004146  -0.001019  -0.002671  -0.015602
   41  H  3  X    0.001568   0.010823  -0.008542   0.004041  -0.000969
   42  H  3  Y   -0.004438  -0.029726   0.026601  -0.023160  -0.012133
   43  H  3  Z    0.006244  -0.016944   0.012915  -0.022471   0.002841
   44  H  4  S   -0.225708  -0.031905   0.129781   0.206231  -0.054843
   45  H  4  S   -0.146592  -0.013435   0.182898   0.256394   0.005486
   46  H  4  X    0.001327   0.000635   0.006278  -0.003994   0.001758
   47  H  4  Y   -0.005390   0.006915   0.000737   0.006241   0.005326
   48  H  4  Z    0.011390   0.004521  -0.007432  -0.007424   0.004677
   49  H  4  S    0.009438   0.001436   0.014233   0.012773  -0.002653
   50  H  4  X   -0.005794   0.005284  -0.011204   0.001769  -0.001347
   51  H  4  Y   -0.004104  -0.008218   0.021997   0.020378  -0.005195
   52  H  4  Z    0.019727   0.003872  -0.033142  -0.052055  -0.007341
   53  C  5  S    0.000547  -0.000633  -0.001343   0.001596   0.000169
   54  C  5  S    0.003741   0.023194   0.035503  -0.004501   0.011552
   55  C  5  S   -0.013849   0.063558   0.012028  -0.046334   0.059929
   56  C  5  X   -0.064250  -0.095017   0.011306   0.038852  -0.022277
   57  C  5  Y   -0.065777  -0.236256  -0.053972   0.035619  -0.280255
   58  C  5  Z   -0.160286   0.031226  -0.024028  -0.170734  -0.000824
   59  C  5  X   -0.023788  -0.065026   0.025812   0.008887   0.008291
   60  C  5  Y   -0.017349  -0.119930  -0.057003   0.078739  -0.018153
   61  C  5  Z   -0.096927   0.033229   0.011741  -0.023144   0.016661
   62  C  5 XX   -0.007240   0.001367  -0.011370   0.001325   0.004674
   63  C  5 YY   -0.000166   0.006133   0.009410  -0.011819   0.005034
   64  C  5 ZZ    0.007406  -0.007499   0.001960   0.010494  -0.009708
   65  C  5 XY    0.003539   0.005457  -0.001149  -0.001398   0.028693
   66  C  5 XZ    0.011828  -0.004539  -0.001286  -0.005799   0.001666
   67  C  5 YZ   -0.000112  -0.009042  -0.005952  -0.015042  -0.009063
   68  C  5  S    0.031681   0.045118  -0.083728   0.009400   0.282586
   69  C  5  X   -0.013365  -0.013933   0.004563   0.020424   0.046530
   70  C  5  Y   -0.003516  -0.022900   0.028903   0.024552  -0.049028
   71  C  5  Z    0.013718   0.005747   0.002185  -0.000261   0.022722
   72  C  5 XX    0.000136  -0.001605  -0.017402   0.018987   0.017181
   73  C  5 YY    0.005962   0.005659   0.015496  -0.010793  -0.042975
   74  C  5 ZZ   -0.006098  -0.004054   0.001905  -0.008193   0.025794
   75  C  5 XY   -0.018143  -0.000104  -0.034976   0.013983   0.005847
   76  C  5 XZ   -0.000692  -0.008897  -0.010171  -0.015488  -0.007070
   77  C  5 YZ    0.046779  -0.007066  -0.006013   0.000276   0.021538
   78  H  6  S   -0.097343  -0.086616  -0.027593  -0.092595  -0.191455
   79  H  6  S   -0.051931  -0.069387  -0.034803  -0.112859  -0.233227
   80  H  6  X   -0.005048  -0.004463  -0.000493  -0.001327  -0.007768
   81  H  6  Y    0.002588  -0.000205  -0.000104   0.007119   0.003252
   82  H  6  Z   -0.000578   0.005484   0.000454  -0.001725   0.007278
   83  H  6  S   -0.006117   0.009041  -0.008175  -0.004039  -0.002747
   84  H  6  X    0.005524   0.004891  -0.006488  -0.002745  -0.020698
   85  H  6  Y   -0.012162   0.019148   0.002549   0.021859   0.042256
   86  H  6  Z   -0.001052   0.006359   0.008033   0.014001   0.010136
   87  H  7  S    0.131774  -0.057542   0.032694   0.157948  -0.063009
   88  H  7  S    0.031630  -0.005456   0.062797   0.166009  -0.068266
   89  H  7  X    0.001002  -0.003036  -0.000347   0.002062  -0.001280
   90  H  7  Y   -0.002834  -0.005294  -0.002548  -0.004017  -0.006778
   91  H  7  Z    0.006200  -0.004487   0.002465   0.007431  -0.005180
   92  H  7  S    0.003727   0.000755   0.002944   0.002176   0.015735
   93  H  7  X    0.006401   0.004056  -0.007487  -0.006891  -0.004481
   94  H  7  Y    0.022934  -0.001615  -0.011106  -0.021903   0.014588
   95  H  7  Z   -0.005341   0.002311   0.014933   0.032557  -0.003067
   96  C  8  S    0.000547  -0.000633   0.001343  -0.001596  -0.000169
   97  C  8  S    0.003741   0.023193  -0.035503   0.004501  -0.011552
   98  C  8  S   -0.013852   0.063560  -0.012029   0.046336  -0.059928
   99  C  8  X    0.064249   0.095018   0.011305   0.038851  -0.022275
  100  C  8  Y   -0.065778  -0.236255   0.053974  -0.035619   0.280255
  101  C  8  Z    0.160286  -0.031227  -0.024027  -0.170734  -0.000826
  102  C  8  X    0.023793   0.065024   0.025811   0.008887   0.008291
  103  C  8  Y   -0.017350  -0.119930   0.057005  -0.078740   0.018152
  104  C  8  Z    0.096928  -0.033229   0.011745  -0.023145   0.016661
  105  C  8 XX   -0.007240   0.001367   0.011370  -0.001325  -0.004674
  106  C  8 YY   -0.000166   0.006132  -0.009410   0.011819  -0.005034
  107  C  8 ZZ    0.007407  -0.007499  -0.001960  -0.010494   0.009708
  108  C  8 XY   -0.003539  -0.005457  -0.001148  -0.001398   0.028693
  109  C  8 XZ    0.011828  -0.004539   0.001286   0.005800  -0.001666
  110  C  8 YZ    0.000111   0.009042  -0.005952  -0.015042  -0.009064
  111  C  8  S    0.031687   0.045115   0.083729  -0.009399  -0.282586
  112  C  8  X    0.013363   0.013933   0.004563   0.020424   0.046530
  113  C  8  Y   -0.003515  -0.022900  -0.028903  -0.024552   0.049027
  114  C  8  Z   -0.013719  -0.005747   0.002184  -0.000262   0.022723
  115  C  8 XX    0.000134  -0.001605   0.017402  -0.018988  -0.017182
  116  C  8 YY    0.005963   0.005659  -0.015497   0.010794   0.042975
  117  C  8 ZZ   -0.006097  -0.004055  -0.001906   0.008194  -0.025794
  118  C  8 XY    0.018143   0.000104  -0.034975   0.013982   0.005846
  119  C  8 XZ   -0.000693  -0.008896   0.010169   0.015488   0.007071
  120  C  8 YZ   -0.046779   0.007066  -0.006013   0.000275   0.021538
  121  H  9  S   -0.097343  -0.086616   0.027593   0.092595   0.191457
  122  H  9  S   -0.051932  -0.069385   0.034804   0.112857   0.233230
  123  H  9  X    0.005048   0.004463  -0.000493  -0.001327  -0.007768
  124  H  9  Y    0.002588  -0.000205   0.000104  -0.007119  -0.003252
  125  H  9  Z    0.000578  -0.005484   0.000454  -0.001725   0.007278
  126  H  9  S   -0.006117   0.009041   0.008175   0.004038   0.002747
  127  H  9  X   -0.005524  -0.004891  -0.006489  -0.002744  -0.020698
  128  H  9  Y   -0.012162   0.019148  -0.002550  -0.021859  -0.042257
  129  H  9  Z    0.001052  -0.006359   0.008033   0.014001   0.010136
  130  H 10  S    0.131774  -0.057543  -0.032692  -0.157948   0.063006
  131  H 10  S    0.031627  -0.005457  -0.062798  -0.166008   0.068262
  132  H 10  X   -0.001001   0.003036  -0.000347   0.002062  -0.001280
  133  H 10  Y   -0.002834  -0.005294   0.002548   0.004017   0.006778
  134  H 10  Z   -0.006200   0.004487   0.002465   0.007431  -0.005180
  135  H 10  S    0.003728   0.000755  -0.002943  -0.002176  -0.015735
  136  H 10  X   -0.006401  -0.004056  -0.007486  -0.006891  -0.004481
  137  H 10  Y    0.022934  -0.001615   0.011107   0.021903  -0.014587
  138  H 10  Z    0.005341  -0.002310   0.014933   0.032557  -0.003066
  139  C 11  S   -0.000655   0.000216   0.000123   0.000961   0.001787
  140  C 11  S   -0.004261   0.016842  -0.015503   0.012799  -0.038241
  141  C 11  S    0.046611   0.043416   0.031874   0.019523  -0.128600
  142  C 11  X    0.011838  -0.023641   0.284652  -0.086690   0.071516
  143  C 11  Y    0.029815   0.274321   0.086703  -0.003288  -0.266271
  144  C 11  Z    0.256030  -0.044749   0.072812   0.238952  -0.006354
  145  C 11  X   -0.018476  -0.041127   0.055533  -0.016039   0.120815
  146  C 11  Y    0.033340   0.103685  -0.020210   0.004112  -0.199627
  147  C 11  Z    0.072082   0.001447  -0.005497   0.027860  -0.025440
  148  C 11 XX    0.004996   0.003943   0.022641   0.000587  -0.005024
  149  C 11 YY    0.006355   0.005124  -0.009161   0.011823  -0.003587
  150  C 11 ZZ   -0.011351  -0.009067  -0.013479  -0.012410   0.008611
  151  C 11 XY    0.001206  -0.015029   0.004020   0.000704   0.016272
  152  C 11 XZ   -0.006690   0.002353   0.007362  -0.004460   0.000484
  153  C 11 YZ   -0.005241   0.010582  -0.000724  -0.019700  -0.008426
  154  C 11  S   -0.016663  -0.050419  -0.035816  -0.015907   0.084846
  155  C 11  X   -0.003621   0.009168  -0.023612  -0.010420   0.000927
  156  C 11  Y   -0.003774  -0.005768  -0.014992  -0.007575   0.001088
  157  C 11  Z    0.014808   0.001152  -0.011587  -0.003707  -0.001481
  158  C 11 XX   -0.015370  -0.011409  -0.041027  -0.023197  -0.008613
  159  C 11 YY    0.001734   0.005865   0.002725   0.004477   0.001194
  160  C 11 ZZ    0.013636   0.005544   0.038302   0.018719   0.007419
  161  C 11 XY   -0.003757   0.001065  -0.005501   0.005167   0.025185
  162  C 11 XZ    0.023062  -0.012482  -0.016945   0.019142   0.009238
  163  C 11 YZ    0.010049  -0.006779  -0.010012   0.012900   0.001899
  164  H 12  S    0.052362   0.012774   0.278963  -0.033776   0.008815
  165  H 12  S    0.053540   0.065303   0.266555   0.018565  -0.044698
  166  H 12  X   -0.003730  -0.000374  -0.012877   0.000805   0.000475
  167  H 12  Y    0.000014   0.007618   0.001365  -0.000324  -0.008572
  168  H 12  Z    0.006466  -0.001605  -0.001111   0.008205  -0.000487
  169  H 12  S   -0.001215  -0.011591   0.024250   0.002914  -0.015331
  170  H 12  X   -0.007475  -0.015183  -0.036244  -0.006956   0.010908
  171  H 12  Y   -0.006810  -0.006270  -0.008063  -0.004394  -0.000903
  172  H 12  Z   -0.014948  -0.000409  -0.008016  -0.011485   0.000765
  173  H 13  S    0.113923  -0.193217  -0.110992   0.185904   0.134608
  174  H 13  S    0.055855  -0.163385  -0.149380   0.172353   0.069310
  175  H 13  X    0.003469  -0.005759   0.004237   0.001389   0.004252
  176  H 13  Y    0.007480  -0.004327  -0.004057   0.011367   0.001283
  177  H 13  Z    0.001926   0.008534   0.008047  -0.000742  -0.006098
  178  H 13  S   -0.009498  -0.004146   0.001019   0.002670   0.015602
  179  H 13  X   -0.001567  -0.010823  -0.008542   0.004041  -0.000969
  180  H 13  Y   -0.004436  -0.029726  -0.026600   0.023160   0.012133
  181  H 13  Z   -0.006245   0.016945   0.012915  -0.022471   0.002841
  182  H 14  S   -0.225708  -0.031909  -0.129786  -0.206228   0.054843
  183  H 14  S   -0.146591  -0.013441  -0.182904  -0.256393  -0.005485
  184  H 14  X   -0.001328  -0.000635   0.006278  -0.003994   0.001758
  185  H 14  Y   -0.005390   0.006915  -0.000737  -0.006241  -0.005326
  186  H 14  Z   -0.011390  -0.004521  -0.007433  -0.007424   0.004677
  187  H 14  S    0.009439   0.001436  -0.014233  -0.012773   0.002653
  188  H 14  X    0.005794  -0.005284  -0.011204   0.001769  -0.001347
  189  H 14  Y   -0.004105  -0.008218  -0.021998  -0.020378   0.005195
  190  H 14  Z   -0.019727  -0.003874  -0.033143  -0.052055  -0.007341

                     16         17         18         19         20
                   -0.4574    -0.4487     0.0379     0.0463     0.0484
                     A          A          A          A          A   
    1  C  1  S   -0.000653   0.001233  -0.012904  -0.000463   0.001458
    2  C  1  S    0.008279  -0.007774   0.015626  -0.021519   0.026923
    3  C  1  S    0.012564  -0.016325   0.582623   0.074197   0.029047
    4  C  1  X    0.190861   0.012867  -0.014818   0.032259   0.007225
    5  C  1  Y    0.016907  -0.023806  -0.022432   0.012705  -0.015358
    6  C  1  Z   -0.014321   0.160964   0.006483   0.003243  -0.001822
    7  C  1  X    0.048306  -0.028604  -0.163222   0.527620  -0.147356
    8  C  1  Y    0.061894  -0.016644  -0.142901   0.202479  -0.597859
    9  C  1  Z   -0.012811   0.027289   0.093054  -0.005434   0.041176
   10  C  1 XX   -0.021311  -0.009198  -0.001610  -0.002880   0.000344
   11  C  1 YY    0.017942  -0.005135   0.000156   0.002713  -0.005257
   12  C  1 ZZ    0.003370   0.014333   0.001455   0.000167   0.004913
   13  C  1 XY   -0.002548  -0.001044  -0.001430   0.002287  -0.005405
   14  C  1 XZ   -0.004694  -0.001083   0.000147  -0.001819  -0.000538
   15  C  1 YZ    0.002713  -0.018804  -0.000447  -0.000635   0.003478
   16  C  1  S    0.013340   0.036890   2.563420  -0.194195   1.163082
   17  C  1  X   -0.000013   0.005980  -0.120097   1.943387   0.106252
   18  C  1  Y    0.013400   0.002496   0.104825   0.220713  -0.796323
   19  C  1  Z    0.007422  -0.021649   0.063365   0.311800   0.061716
   20  C  1 XX    0.021383   0.000319   0.028063  -0.116593   0.051561
   21  C  1 YY   -0.003470   0.011597  -0.052202   0.102637  -0.109563
   22  C  1 ZZ   -0.017913  -0.011916   0.024139   0.013956   0.058002
   23  C  1 XY    0.003027  -0.016633  -0.046109   0.070170  -0.090222
   24  C  1 XZ    0.007988  -0.009066   0.017551  -0.031877   0.017765
   25  C  1 YZ   -0.010067   0.012008   0.011911  -0.009118   0.043524
   26  H  2  S   -0.185676  -0.055199   0.000455  -0.009426   0.006789
   27  H  2  S   -0.232647  -0.079886  -0.642010   1.013328  -0.277737
   28  H  2  X   -0.007923  -0.003438   0.000656  -0.000388   0.003107
   29  H  2  Y    0.000462  -0.001105   0.000708  -0.001181   0.001772
   30  H  2  Z   -0.002688   0.004506  -0.000188   0.000021   0.000175
   31  H  2  S   -0.016444  -0.010109  -1.024346   3.535079  -0.062621
   32  H  2  X   -0.046722  -0.014778  -0.128104   0.190059  -0.062788
   33  H  2  Y    0.002032  -0.005725  -0.015831  -0.021336   0.064838
   34  H  2  Z   -0.006098  -0.007287  -0.019940   0.043695  -0.010628
   35  H  3  S    0.083225  -0.089424   0.007967  -0.002101   0.002363
   36  H  3  S    0.150440  -0.135771  -0.391490  -0.193281  -0.666306
   37  H  3  X    0.004594   0.002372  -0.000274   0.001533   0.002340
   38  H  3  Y    0.004124  -0.005558  -0.000069  -0.001585   0.000950
   39  H  3  Z    0.002455   0.001467  -0.000000  -0.001465  -0.001462
   40  H  3  S    0.019743  -0.020022  -0.129244   0.052414  -1.647994
   41  H  3  X   -0.017818   0.005807  -0.015541  -0.004131   0.000620
   42  H  3  Y    0.025263  -0.020295  -0.055405  -0.060904  -0.064870
   43  H  3  Z    0.015995  -0.017644  -0.018401  -0.058004  -0.080771
   44  H  4  S    0.012055   0.170225   0.010670  -0.000952  -0.000090
   45  H  4  S    0.051760   0.212564  -0.577325  -0.089649  -0.392017
   46  H  4  X    0.005857   0.000695  -0.000235   0.000833   0.000506
   47  H  4  Y   -0.000173   0.004867   0.000409  -0.001113   0.001604
   48  H  4  Z   -0.000633  -0.005808   0.000158   0.003304  -0.000017
   49  H  4  S   -0.003596   0.035290  -0.460232  -0.487483  -0.975232
   50  H  4  X   -0.006165   0.001772  -0.018359  -0.032458  -0.020077
   51  H  4  Y    0.004433   0.016104  -0.078484  -0.011644   0.020167
   52  H  4  Z   -0.011420  -0.036400   0.096128   0.000918   0.060929
   53  C  5  S    0.001949   0.000396  -0.010768   0.001126  -0.001877
   54  C  5  S   -0.027264  -0.018134   0.000707  -0.007973  -0.026447
   55  C  5  S   -0.090000  -0.059364   0.472413  -0.016208   0.022218
   56  C  5  X   -0.330295  -0.061170  -0.014880   0.000025   0.027181
   57  C  5  Y    0.032650   0.010075   0.035789  -0.027184  -0.008625
   58  C  5  Z    0.027875  -0.262167  -0.016223   0.006214  -0.002036
   59  C  5  X   -0.171622  -0.048089  -0.152184   0.562115  -0.117655
   60  C  5  Y    0.014800   0.016840   0.096254   0.273796  -0.611838
   61  C  5  Z   -0.015350  -0.006338  -0.049586   0.039067  -0.036517
   62  C  5 XX   -0.024075  -0.016313  -0.001837   0.005594  -0.001560
   63  C  5 YY    0.019922  -0.008706   0.001304  -0.004020   0.005218
   64  C  5 ZZ    0.004153   0.025020   0.000534  -0.001573  -0.003658
   65  C  5 XY   -0.002281   0.001658   0.001696  -0.000063   0.004931
   66  C  5 XZ   -0.013362   0.012104   0.000016   0.003309   0.001182
   67  C  5 YZ    0.005743  -0.016624  -0.000641  -0.000478  -0.003887
   68  C  5  S   -0.013185  -0.036686   0.897265   1.728495  -1.023204
   69  C  5  X   -0.013151  -0.018205  -0.087192   1.720042   0.063479
   70  C  5  Y    0.004374   0.025173   0.326440  -0.053143  -0.892908
   71  C  5  Z   -0.022821   0.033406  -0.105495   0.087811  -0.291611
   72  C  5 XX   -0.008655  -0.009282  -0.014074   0.102679   0.022219
   73  C  5 YY    0.001862   0.024461  -0.009868  -0.131099   0.021865
   74  C  5 ZZ    0.006793  -0.015179   0.023941   0.028420  -0.044084
   75  C  5 XY    0.008619  -0.018057   0.002837  -0.053144   0.153401
   76  C  5 XZ    0.003372   0.015090   0.017608   0.042417  -0.035079
   77  C  5 YZ   -0.020316   0.030265   0.033008   0.031636  -0.031690
   78  H  6  S    0.169379  -0.134554   0.001630  -0.009859  -0.003985
   79  H  6  S    0.163059  -0.228947  -0.496610   0.022072   0.845227
   80  H  6  X   -0.003698  -0.005840  -0.000001  -0.002752   0.001308
   81  H  6  Y   -0.008413   0.006670   0.000121  -0.000843   0.002097
   82  H  6  Z   -0.005955  -0.004116  -0.000917   0.000635  -0.001278
   83  H  6  S    0.011986  -0.035964  -0.735445   1.025247   2.221786
   84  H  6  X    0.010615  -0.022292  -0.033969  -0.050872   0.120824
   85  H  6  Y   -0.020608   0.026915   0.087661   0.001427  -0.073923
   86  H  6  Z   -0.011309   0.026498   0.036361  -0.027060  -0.135103
   87  H  7  S    0.005038   0.268793   0.012038  -0.004303  -0.003945
   88  H  7  S   -0.042721   0.357383  -0.488847   0.019021   0.269935
   89  H  7  X   -0.008815   0.002264   0.000465  -0.002245   0.000913
   90  H  7  Y    0.000590  -0.005505   0.000547  -0.000695   0.002731
   91  H  7  Z    0.002272   0.010499   0.000520  -0.001843  -0.001666
   92  H  7  S   -0.013059   0.030492  -0.403418   0.481174   0.405895
   93  H  7  X    0.000443   0.023303  -0.002410  -0.035390   0.001971
   94  H  7  Y   -0.006123  -0.017422   0.079399  -0.007484   0.066141
[...]
    2             0.008897  -0.000400   0.436674  -0.000189  -0.004679
    3             0.059112   0.211997   0.059080   0.169924   0.078842
    4             0.260072   0.003509   0.086467   0.253234   0.008944
    5             0.215045   0.344613   0.057662   0.148623   0.285805
    6             0.046748   0.033476   0.006756   0.044247   0.189318
    7             0.066710   0.014849   0.001248   0.126287   0.017953
    8             0.215046   0.344613   0.057663   0.148624   0.285804
    9             0.046748   0.033475   0.006756   0.044246   0.189322
   10             0.066710   0.014849   0.001248   0.126287   0.017952
   11             0.343416   0.391955   0.352112   0.257874   0.423814
   12             0.008893  -0.000399   0.436674  -0.000187  -0.004679
   13             0.059118   0.211998   0.059071   0.169928   0.078843
   14             0.260069   0.003511   0.086475   0.253227   0.008945

                     16         17

                  2.000000   2.000000

    1             0.153009   0.101210
    2             0.175344   0.012378
    3             0.042203   0.032754
    4             0.000846   0.155804
    5             0.485987   0.241288
    6             0.146974   0.077104
    7            -0.004363   0.379461
    8             0.485987   0.241289
    9             0.146972   0.077102
   10            -0.004363   0.379463
   11             0.153010   0.101212
   12             0.175346   0.012376
   13             0.042200   0.032755
   14             0.000847   0.155804

               ----- POPULATIONS IN EACH AO -----
                             MULLIKEN      LOWDIN
              1  C  1  S      2.00800     1.81627
              2  C  1  S      0.65226     0.42042
              3  C  1  S      0.06163     0.18230
              4  C  1  X      0.68297     0.58265
              5  C  1  Y      0.67843     0.58129
              6  C  1  Z      0.68217     0.57882
              7  C  1  X      0.14804     0.29927
              8  C  1  Y      0.35288     0.28200
              9  C  1  Z      0.15335     0.31634
             10  C  1 XX      0.01525     0.12074
             11  C  1 YY      0.01823     0.11405
             12  C  1 ZZ      0.01176     0.11427
             13  C  1 XY      0.00403     0.02166
             14  C  1 XZ      0.01740     0.00826
             15  C  1 YZ      0.00000     0.03496
             16  C  1  S      0.11426     0.04927
             17  C  1  X     -0.00594     0.03931
             18  C  1  Y     -0.00886     0.03155
             19  C  1  Z      0.00544     0.02866
             20  C  1 XX     -0.02291     0.08031
             21  C  1 YY     -0.00432     0.08269
             22  C  1 ZZ     -0.00584     0.04856
             23  C  1 XY     -0.01062     0.05689
             24  C  1 XZ     -0.01135     0.02134
             25  C  1 YZ      0.00000     0.10990
             26  H  2  S      0.77702     0.54433
             27  H  2  S      0.40310     0.15842
             28  H  2  X      0.01917     0.03445
             29  H  2  Y      0.00482     0.01335
             30  H  2  Z      0.00572     0.01399
             31  H  2  S      0.01132     0.01999
             32  H  2  X     -0.01327     0.08311
             33  H  2  Y     -0.01622     0.05393
             34  H  2  Z     -0.02240     0.06170
             35  H  3  S      0.77764     0.53512
             36  H  3  S      0.29510     0.15162
             37  H  3  X      0.00648     0.01553
             38  H  3  Y      0.01241     0.02412
             39  H  3  Z      0.01078     0.02135
             40  H  3  S      0.01931     0.02137
             41  H  3  X     -0.01725     0.06734
             42  H  3  Y     -0.02216     0.06243
             43  H  3  Z     -0.01840     0.07108
             44  H  4  S      0.77646     0.53996
             45  H  4  S      0.33578     0.15528
             46  H  4  X      0.00511     0.01348
             47  H  4  Y      0.00626     0.01530
             48  H  4  Z      0.01826     0.03273
             49  H  4  S     -0.00292     0.02061
             50  H  4  X     -0.01592     0.05839
             51  H  4  Y     -0.02069     0.05266
             52  H  4  Z     -0.03129     0.08664
             53  C  5  S      2.00859     1.81692
             54  C  5  S      0.64948     0.41730
             55  C  5  S      0.12348     0.17324
             56  C  5  X      0.66966     0.57736
             57  C  5  Y      0.67314     0.57319
             58  C  5  Z      0.68434     0.57832
             59  C  5  X      0.45487     0.25196
             60  C  5  Y      0.34460     0.26810
             61  C  5  Z      0.22229     0.29994
             62  C  5 XX      0.01911     0.12152
             63  C  5 YY      0.02057     0.11403
             64  C  5 ZZ      0.01960     0.11464
             65  C  5 XY      0.01123     0.03680
             66  C  5 XZ      0.01431     0.02064
             67  C  5 YZ      0.00000     0.02865
             68  C  5  S     -0.12011     0.04818
             69  C  5  X      0.06038     0.04332
             70  C  5  Y     -0.02194     0.03776
             71  C  5  Z     -0.00679     0.03054
             72  C  5 XX     -0.01460     0.10802
             73  C  5 YY      0.08334     0.08442
             74  C  5 ZZ      0.01358     0.06040
             75  C  5 XY      0.02571     0.14843
             76  C  5 XZ     -0.00040     0.10170
             77  C  5 YZ      0.00000     0.10099
             78  H  6  S      0.78738     0.53577
             79  H  6  S      0.36934     0.14844
             80  H  6  X      0.00681     0.01630
             81  H  6  Y      0.01189     0.02388
             82  H  6  Z      0.00951     0.01933
             83  H  6  S     -0.00027     0.02056
             84  H  6  X     -0.02480     0.05006
             85  H  6  Y     -0.02343     0.06202
             86  H  6  Z     -0.02074     0.06457
             87  H  7  S      0.78824     0.54104
             88  H  7  S      0.37098     0.14686
             89  H  7  X      0.00432     0.01301
             90  H  7  Y      0.00540     0.01436
             91  H  7  Z      0.01820     0.03280
             92  H  7  S     -0.00830     0.02062
             93  H  7  X     -0.02084     0.04687
             94  H  7  Y     -0.02870     0.05111
             95  H  7  Z     -0.01990     0.08602
             96  C  8  S      2.00859     1.81692
             97  C  8  S      0.64948     0.41730
             98  C  8  S      0.12348     0.17324
             99  C  8  X      0.66966     0.57736
            100  C  8  Y      0.67314     0.57319
            101  C  8  Z      0.68434     0.57832
            102  C  8  X      0.45487     0.25196
            103  C  8  Y      0.34460     0.26810
            104  C  8  Z      0.22230     0.29994
            105  C  8 XX      0.01911     0.12152
            106  C  8 YY      0.02057     0.11403
            107  C  8 ZZ      0.01960     0.11464
            108  C  8 XY      0.01123     0.03680
            109  C  8 XZ      0.01431     0.02064
            110  C  8 YZ      0.00000     0.02865
            111  C  8  S     -0.12011     0.04818
            112  C  8  X      0.06038     0.04332
            113  C  8  Y     -0.02194     0.03776
            114  C  8  Z     -0.00679     0.03054
            115  C  8 XX     -0.01460     0.10802
            116  C  8 YY      0.08334     0.08442
            117  C  8 ZZ      0.01358     0.06040
            118  C  8 XY      0.02571     0.14843
            119  C  8 XZ     -0.00040     0.10170
            120  C  8 YZ      0.00000     0.10099
            121  H  9  S      0.78738     0.53577
            122  H  9  S      0.36934     0.14844
            123  H  9  X      0.00681     0.01630
            124  H  9  Y      0.01189     0.02388
            125  H  9  Z      0.00951     0.01933
            126  H  9  S     -0.00027     0.02056
            127  H  9  X     -0.02480     0.05006
            128  H  9  Y     -0.02343     0.06202
            129  H  9  Z     -0.02074     0.06457
            130  H 10  S      0.78824     0.54104
            131  H 10  S      0.37097     0.14686
            132  H 10  X      0.00432     0.01301
            133  H 10  Y      0.00540     0.01436
            134  H 10  Z      0.01820     0.03280
            135  H 10  S     -0.00830     0.02062
            136  H 10  X     -0.02084     0.04687
            137  H 10  Y     -0.02870     0.05111
            138  H 10  Z     -0.01990     0.08602
            139  C 11  S      2.00800     1.81627
            140  C 11  S      0.65226     0.42042
            141  C 11  S      0.06163     0.18230
            142  C 11  X      0.68297     0.58265
            143  C 11  Y      0.67843     0.58129
            144  C 11  Z      0.68217     0.57882
            145  C 11  X      0.14804     0.29927
            146  C 11  Y      0.35288     0.28200
            147  C 11  Z      0.15335     0.31634
            148  C 11 XX      0.01525     0.12074
            149  C 11 YY      0.01823     0.11405
            150  C 11 ZZ      0.01176     0.11427
            151  C 11 XY      0.00403     0.02166
            152  C 11 XZ      0.01740     0.00826
            153  C 11 YZ      0.00000     0.03496
            154  C 11  S      0.11426     0.04927
            155  C 11  X     -0.00594     0.03931
            156  C 11  Y     -0.00886     0.03155
            157  C 11  Z      0.00544     0.02866
            158  C 11 XX     -0.02291     0.08031
            159  C 11 YY     -0.00432     0.08269
            160  C 11 ZZ     -0.00584     0.04856
            161  C 11 XY     -0.01061     0.05689
            162  C 11 XZ     -0.01135     0.02134
            163  C 11 YZ      0.00000     0.10990
            164  H 12  S      0.77702     0.54433
            165  H 12  S      0.40311     0.15842
            166  H 12  X      0.01917     0.03445
            167  H 12  Y      0.00482     0.01335
            168  H 12  Z      0.00572     0.01399
            169  H 12  S      0.01132     0.01999
            170  H 12  X     -0.01327     0.08311
            171  H 12  Y     -0.01622     0.05393
            172  H 12  Z     -0.02240     0.06170
            173  H 13  S      0.77764     0.53512
            174  H 13  S      0.29510     0.15162
            175  H 13  X      0.00648     0.01553
            176  H 13  Y      0.01241     0.02412
            177  H 13  Z      0.01078     0.02135
            178  H 13  S      0.01931     0.02137
            179  H 13  X     -0.01725     0.06734
            180  H 13  Y     -0.02216     0.06243
            181  H 13  Z     -0.01841     0.07108
            182  H 14  S      0.77646     0.53996
            183  H 14  S      0.33578     0.15528
            184  H 14  X      0.00511     0.01348
            185  H 14  Y      0.00626     0.01530
            186  H 14  Z      0.01826     0.03273
            187  H 14  S     -0.00292     0.02061
            188  H 14  X     -0.01592     0.05839
            189  H 14  Y     -0.02069     0.05266
            190  H 14  Z     -0.03129     0.08664

          ----- MULLIKEN ATOMIC OVERLAP POPULATIONS -----
          (OFF-DIAGONAL ELEMENTS NEED TO BE MULTIPLIED BY 2)

             1           2           3           4           5

    1    4.1956903
    2    0.3351142   1.2592293
    3    0.3506308  -0.2075569   1.1044678
    4    0.3450524  -0.2294860  -0.1507012   1.2419194
    5    0.5227756   0.0992472  -0.0504592  -0.1077977   4.7434271
    6   -0.0816961  -0.0394665   0.0740170  -0.0893125   0.1565595
    7   -0.0598474  -0.0536363  -0.0866448   0.0931986   0.1830416
    8   -0.0985395   0.0101620   0.0051419  -0.0331697   0.3529269
    9    0.0309577   0.0016803   0.0116145  -0.0067612   0.1302034
   10    0.0028535   0.0021473  -0.0187598   0.0245967   0.0209295
   11   -0.0131437  -0.0124158   0.0224352  -0.0036057  -0.0985417
   12   -0.0124160  -0.0022903   0.0030969   0.0034305   0.0101620
   13    0.0224352   0.0030971   0.0166770  -0.0100545   0.0051433
   14   -0.0036063   0.0034303  -0.0100538  -0.0062736  -0.0331713

             6           7           8           9          10

    6    1.2779753
    7   -0.2400998   1.2890728
    8    0.1302012   0.0209331   4.7434268
    9    0.0195594  -0.1295316   0.1565588   1.2779763
   10   -0.1295318   0.0820739   0.1830429  -0.2400982   1.2890685
   11    0.0309569   0.0028550   0.5227754  -0.0816986  -0.0598449
   12    0.0016802   0.0021476   0.0992472  -0.0394691  -0.0536341
   13    0.0116145  -0.0187596  -0.0504524   0.0740171  -0.0866473
   14   -0.0067611   0.0245961  -0.1078043  -0.0893099   0.0931984

            11          12          13          14

   11    4.1956902
   12    0.3351149   1.2592345
   13    0.3506259  -0.2075576   1.1044679
   14    0.3450564  -0.2294878  -0.1507030   1.2419244

          TOTAL MULLIKEN AND LOWDIN ATOMIC POPULATIONS
       ATOM         MULL.POP.    CHARGE          LOW.POP.     CHARGE
    1 C             5.536260    0.463740         6.021798   -0.021798
    2 H             1.169256   -0.169256         0.983258    0.016742
    3 H             1.063905   -0.063905         0.969952    0.030048
    4 H             1.071036   -0.071036         0.975042    0.024958
    5 C             5.934446    0.065554         6.156342   -0.156342
    6 H             1.115696   -0.115696         0.940917    0.059083
    7 H             1.109399   -0.109399         0.952691    0.047309
    8 C             5.934451    0.065549         6.156342   -0.156342
    9 H             1.115699   -0.115699         0.940917    0.059083
   10 H             1.109395   -0.109395         0.952691    0.047309
   11 C             5.536260    0.463740         6.021798   -0.021798
   12 H             1.169259   -0.169259         0.983259    0.016741
   13 H             1.063904   -0.063904         0.969952    0.030048
   14 H             1.071035   -0.071035         0.975041    0.024959

          MULLIKEN SPHERICAL HARMONIC POPULATIONS
       ATOM           S       P       D      F      G      H      I    TOTAL
    1 C             2.84    2.69    0.01   0.00   0.00   0.00   0.00    5.54
    2 H             1.19   -0.02    0.00   0.00   0.00   0.00   0.00    1.17
    3 H             1.09   -0.03    0.00   0.00   0.00   0.00   0.00    1.06
    4 H             1.11   -0.04    0.00   0.00   0.00   0.00   0.00    1.07
    5 C             2.66    3.08    0.19   0.00   0.00   0.00   0.00    5.93
    6 H             1.16   -0.04    0.00   0.00   0.00   0.00   0.00    1.12
    7 H             1.15   -0.04    0.00   0.00   0.00   0.00   0.00    1.11
    8 C             2.66    3.08    0.19   0.00   0.00   0.00   0.00    5.93
    9 H             1.16   -0.04    0.00   0.00   0.00   0.00   0.00    1.12
   10 H             1.15   -0.04    0.00   0.00   0.00   0.00   0.00    1.11
   11 C             2.84    2.69    0.01   0.00   0.00   0.00   0.00    5.54
   12 H             1.19   -0.02    0.00   0.00   0.00   0.00   0.00    1.17
   13 H             1.09   -0.03    0.00   0.00   0.00   0.00   0.00    1.06
   14 H             1.11   -0.04    0.00   0.00   0.00   0.00   0.00    1.07

          -------------------------------
          BOND ORDER AND VALENCE ANALYSIS     BOND ORDER THRESHOLD=0.050
          -------------------------------

                   BOND                       BOND                       BOND
  ATOM PAIR DIST  ORDER      ATOM PAIR DIST  ORDER      ATOM PAIR DIST  ORDER
    1   2  1.086  0.915        1   3  1.084  0.911        1   4  1.087  0.930
    1   5  1.530  1.188        2   3  1.751 -0.079        2   4  1.752 -0.093
    2   5  2.161  0.073        3   4  1.754 -0.081        5   6  1.086  0.795
    5   7  1.088  0.803        5   8  1.544  1.383        5   9  2.155  0.090
    5  10  2.155  0.087        6   7  1.734 -0.098        6   8  2.155  0.090
    7   8  2.155  0.087        8   9  1.086  0.795        8  10  1.088  0.803
    8  11  1.530  1.188        8  12  2.161  0.073        9  10  1.734 -0.098
   11  12  1.086  0.915       11  13  1.084  0.911       11  14  1.087  0.930
   12  13  1.751 -0.079       12  14  1.752 -0.093       13  14  1.754 -0.081

                       TOTAL       BONDED        FREE
      ATOM            VALENCE     VALENCE     VALENCE
    1 C                 3.940       3.940      -0.000
    2 H                 0.767       0.767      -0.000
    3 H                 0.808       0.808       0.000
    4 H                 0.705       0.705       0.000
    5 C                 4.358       4.358       0.000
    6 H                 0.708       0.708      -0.000
    7 H                 0.701       0.701       0.000
    8 C                 4.358       4.358      -0.000
    9 H                 0.708       0.708       0.000
   10 H                 0.701       0.701      -0.000
   11 C                 3.940       3.940       0.000
   12 H                 0.767       0.767       0.000
   13 H                 0.808       0.808      -0.000
   14 H                 0.705       0.705      -0.000

          ---------------------
          ELECTROSTATIC MOMENTS
          ---------------------

 POINT   1           X           Y           Z (BOHR)    CHARGE
                -0.000000   -0.000000    0.000000        0.00 (A.U.)
         DX          DY          DZ         /D/  (DEBYE)
     0.000000    0.085930    0.000000    0.085930
 ...... END OF PROPERTY EVALUATION ......
 CPU     0: STEP CPU TIME=     0.05 TOTAL CPU TIME=       32.3 (    0.5 MIN)
 TOTAL WALL CLOCK TIME=       32.5 SECONDS, CPU UTILIZATION IS  99.11%



 ---------------------------     ------------------------------
 DISTRIBUTED DATA MP2 ENERGY     PROGRAM WRITTEN BY G. FLETCHER
 ---------------------------     ------------------------------

 DDI: Creating Array [0] - 36100 x 91 = 3285100 words.
    THIS CALCULATION IS RUNNING WITH MWORDS=    5, MEMDDI=     100, AND P=    8
 MEMORY USAGE PER CPU IS 8*(MWORDS + MEMDDI/P)/1024 =    0.1 GBYTES.

 MINIMAL REQUIREMENT FOR THIS RUN IS MWORDS=    1, MEMDDI=       3.
 FOR P=    8, THE MEMORY USAGE PER CPU(CORE) WOULD BE    0.0 GBYTES.


      DIRECT 4-INDEX TRANSFORMATION 
      SCHWARZ INEQUALITY TEST SKIPPED     120576 INTEGRAL BLOCKS

 RESULTS OF MOLLER-PLESSET 2ND ORDER CORRECTION ARE
                     E(SCF)=      -157.3092060236
                       E(2)=        -0.6106136938
                     E(MP2)=      -157.9198197174
 SPIN-COMPONENT-SCALED MP2 RESULTS ARE
                      E(2S)=        -0.4751800356
                      E(2T)=        -0.1354336582
                     E(2ST)=        -0.6153605954 = 6/5 * E(2S) + 1/3 * E(2T)
                    SCS-MP2=      -157.9245666190
 ..... DONE WITH MP2 ENERGY .....
 CPU     0: STEP CPU TIME=     8.87 TOTAL CPU TIME=       41.1 (    0.7 MIN)
 TOTAL WALL CLOCK TIME=       41.5 SECONDS, CPU UTILIZATION IS  99.23%
               580000  WORDS OF DYNAMIC MEMORY USED
 EXECUTION OF GAMESS TERMINATED NORMALLY Fri Feb  5 10:00:21 2016
 DDI: 3729224 bytes (3.6 MB / 0 MWords) used by master data server.

 ----------------------------------------
 CPU timing information for all processes
 ========================================
 0: 41.14 + 0.128 = 41.143
 1: 40.465 + 0.55 = 40.521
 2: 40.827 + 0.88 = 40.916
 3: 40.455 + 0.59 = 40.515
 4: 40.298 + 0.98 = 40.397
 5: 40.886 + 0.67 = 40.954
 6: 40.442 + 0.87 = 40.530
 7: 40.832 + 0.80 = 40.913
 ----------------------------------------
 ddikick.x: exited gracefully.
unset echo
----- accounting info -----
Files used on the master node wr30 were:
-rw-r--r-- 1 kkirsc3m fb03-hpc  562667 Feb  5 10:00 /tmp/4607.wr0.wr.inf.h-brs.de/02.dat
-rw-r--r-- 1 kkirsc3m fb03-hpc    1284 Feb  5 09:59 /tmp/4607.wr0.wr.inf.h-brs.de/02.F05
-rw-r--r-- 1 kkirsc3m fb03-hpc 4155440 Feb  5 10:00 /tmp/4607.wr0.wr.inf.h-brs.de/02.F10
ls: No match.
ls: No match.
ls: No match.
Fri Feb  5 10:00:24 CET 2016
0.280u 0.079s 0:44.87 0.7%	0+0k 16+192io 0pf+0w
