----- GAMESS execution script 'rungms' -----
This job is running on host wr30
under operating system Linux at Fri Feb 5 10:00:31 CET 2016
PBS has assigned the following compute nodes to this run:
wr30
Available scratch disk space (Kbyte units) at beginning of the job is
Filesystem     1K-blocks    Used Available Use% Mounted on
/dev/sda2      379797844 8359364 352139204   3% /
GAMESS temporary binary files will be written to /tmp/4608.wr0.wr.inf.h-brs.de
GAMESS supplementary output files will be written to /tmp/4608.wr0.wr.inf.h-brs.de
Copying input file 03.inp to your run's scratch directory...
cp 03.inp /tmp/4608.wr0.wr.inf.h-brs.de/03.F05
unset echo
/usr/local/hpc5/gamess-gnu/ddikick.x /usr/local/hpc5/gamess-gnu/gamess.00.x 03 -ddi 1 8 wr30:cpus=8:netext=.myri -scr /tmp/4608.wr0.wr.inf.h-brs.de

 Distributed Data Interface kickoff program.
 Initiating 8 compute processes on 1 nodes to run the following command:
 /usr/local/hpc5/gamess-gnu/gamess.00.x 03 

          ******************************************************
          *         GAMESS VERSION =  1 MAY 2013 (R1)          *
          *             FROM IOWA STATE UNIVERSITY             *
          * M.W.SCHMIDT, K.K.BALDRIDGE, J.A.BOATZ, S.T.ELBERT, *
          *   M.S.GORDON, J.H.JENSEN, S.KOSEKI, N.MATSUNAGA,   *
          *          K.A.NGUYEN, S.J.SU, T.L.WINDUS,           *
          *       TOGETHER WITH M.DUPUIS, J.A.MONTGOMERY       *
          *         J.COMPUT.CHEM.  14, 1347-1363(1993)        *
          **************** 64 BIT LINUX VERSION ****************

  SINCE 1993, STUDENTS AND POSTDOCS WORKING AT IOWA STATE UNIVERSITY
  AND ALSO IN THEIR VARIOUS JOBS AFTER LEAVING ISU HAVE MADE IMPORTANT
  CONTRIBUTIONS TO THE CODE:
     IVANA ADAMOVIC, CHRISTINE AIKENS, YURI ALEXEEV, POOJA ARORA,
     ANDREY ASADCHEV, ROB BELL, PRADIPTA BANDYOPADHYAY, JONATHAN BENTZ,
     BRETT BODE, GALINA CHABAN, WEI CHEN, CHEOL HO CHOI, PAUL DAY,
     ALBERT DEFUSCO, TIM DUDLEY, DMITRI FEDOROV, GRAHAM FLETCHER,
     MARK FREITAG, KURT GLAESEMANN, DAN KEMP, GRANT MERRILL,
     NORIYUKI MINEZAWA, JONATHAN MULLIN, TAKESHI NAGATA,
     SEAN NEDD, HEATHER NETZLOFF, BOSILJKA NJEGIC, RYAN OLSON, MIKE PAK,
     JIM SHOEMAKER, LYUDMILA SLIPCHENKO, SAROM SOK, JIE SONG,
     TETSUYA TAKETSUGU, SIMON WEBB, SOOHAENG YOO, FEDERICO ZAHARIEV

  ADDITIONAL CODE HAS BEEN PROVIDED BY COLLABORATORS IN OTHER GROUPS:
     IOWA STATE UNIVERSITY:
          JOE IVANIC, LAIMUTIS BYTAUTAS, KLAUS RUEDENBERG
     UNIVERSITY OF TOKYO: KIMIHIKO HIRAO, TAKAHITO NAKAJIMA,
          TAKAO TSUNEDA, MUNEAKI KAMIYA, SUSUMU YANAGISAWA,
          KIYOSHI YAGI, MAHITO CHIBA, SEIKEN TOKURA, NAOAKI KAWAKAMI
     UNIVERSITY OF AARHUS: FRANK JENSEN
     UNIVERSITY OF IOWA: VISVALDAS KAIRYS, HUI LI
     NATIONAL INST. OF STANDARDS AND TECHNOLOGY: WALT STEVENS, DAVID GARMER
     UNIVERSITY OF PISA: BENEDETTA MENNUCCI, JACOPO TOMASI
     UNIVERSITY OF MEMPHIS: HENRY KURTZ, PRAKASHAN KORAMBATH
     UNIVERSITY OF ALBERTA: TOBY ZENG, MARIUSZ KLOBUKOWSKI
     UNIVERSITY OF NEW ENGLAND: MARK SPACKMAN
     MIE UNIVERSITY: HIROAKI UMEDA
     MICHIGAN STATE UNIVERSITY:
          KAROL KOWALSKI, MARTA WLOCH, JEFFREY GOUR, JESSE LUTZ,
          WEI LI, PIOTR PIECUCH
     UNIVERSITY OF SILESIA: MONIKA MUSIAL, STANISLAW KUCHARSKI
     FACULTES UNIVERSITAIRES NOTRE-DAME DE LA PAIX:
          OLIVIER QUINET, BENOIT CHAMPAGNE
     UNIVERSITY OF CALIFORNIA - SANTA BARBARA: BERNARD KIRTMAN
     INSTITUTE FOR MOLECULAR SCIENCE:
          KAZUYA ISHIMURA, MICHIO KATOUDA, AND SHIGERU NAGASE
     UNIVERSITY OF NOTRE DAME: DAN CHIPMAN
     KYUSHU UNIVERSITY:
          HARUYUKI NAKANO,
          FENG LONG GU, JACEK KORCHOWIEC, MARCIN MAKOWSKI, AND YURIKO AOKI,
          HIROTOSHI MORI AND EISAKU MIYOSHI
     PENNSYLVANIA STATE UNIVERSITY:
          TZVETELIN IORDANOV, CHET SWALINA, JONATHAN SKONE,
          SHARON HAMMES-SCHIFFER
     WASEDA UNIVERSITY:
          MASATO KOBAYASHI, TOMOKO AKAMA, TSUGUKI TOUMA,
          TAKESHI YOSHIKAWA, YASUHIRO IKABATA, HIROMI NAKAI
     NANJING UNIVERSITY: SHUHUA LI
     UNIVERSITY OF NEBRASKA:
          PEIFENG SU, DEJUN SI, NANDUN THELLAMUREGE, YALI WANG, HUI LI
     UNIVERSITY OF ZURICH:
          ROBERTO PEVERATI, KIM BALDRIDGE
     N. COPERNICUS UNIVERSITY AND JACKSON STATE UNIVERSITY:
          MARIA BARYSZ


 PARALLEL VERSION RUNNING ON     8 PROCESSORS IN     1 NODES.

 EXECUTION OF GAMESS BEGUN Fri Feb  5 10:00:31 2016

            ECHO OF THE FIRST FEW INPUT CARDS -
 INPUT CARD> $CONTRL  ICHARG=0 MPLEVL=2 ISPHER=1                                            
 INPUT CARD>          RUNTYP=ENERGY SCFTYP=RHF EXETYP=RUN                                   
 INPUT CARD>          MULT=1 UNITS=ANGS MAXIT=200                                           
 INPUT CARD>          COORD=PRINAXIS                       $END                             
 INPUT CARD> $SCF     DIRSCF=.T. CONV=1.0E-08  FDIFF=.F.   $END                             
 INPUT CARD> $SYSTEM  TIMLIM=50000 MWORDS=5 MEMDDI=100     $END                             
 INPUT CARD> $BASIS   GBASIS=ACCD                          $END                             
 INPUT CARD> $GUESS   GUESS=HUCKEL                         $END                             
 INPUT CARD> $DATA                                                                          
 INPUT CARD>Full optimization                                                               
 INPUT CARD> C1                                                                             
 INPUT CARD> C           6.0  -1.5616278092  -0.5826769158   0.1196035090                   
 INPUT CARD> H           1.0  -2.5771632635  -0.4784755512  -0.2499242529                   
 INPUT CARD> H           1.0  -1.1649790846  -1.5108688837  -0.2776817167                   
 INPUT CARD> H           1.0  -1.6128708271  -0.6798935970   1.2010187029                   
 INPUT CARD> C           6.0  -0.7108454177   0.6217880452  -0.2867815751                   
 INPUT CARD> H           1.0  -1.2119257958   1.5324551500   0.0321735188                   
 INPUT CARD> H           1.0  -0.6569836245   0.6696749955  -1.3728438163                   
 INPUT CARD> C           6.0   0.7107849669   0.6218055595   0.2868921047                   
 INPUT CARD> H           1.0   1.2117777246   1.5325803342  -0.0318924674                   
 INPUT CARD> H           1.0   0.6569141134   0.6694866207   1.3729630956                   
 INPUT CARD> C           6.0   1.5616847151  -0.5825044250  -0.1197076717                   
 INPUT CARD> H           1.0   2.5772231847  -0.4782466239   0.2497958387                   
 INPUT CARD> H           1.0   1.1651539977  -1.5107993887   0.2774546698                   
 INPUT CARD> H           1.0   1.6128957831  -0.6795544774  -1.2011393818                   
 INPUT CARD> $END                                                                           
    5000000 WORDS OF MEMORY AVAILABLE

     BASIS OPTIONS
     -------------
     GBASIS=ACCD         IGAUSS=       0      POLAR=NONE    
     NDFUNC=       0     NFFUNC=       0     DIFFSP=       F
     NPFUNC=       0      DIFFS=       F     BASNAM=        


     RUN TITLE
     ---------
 Full optimization                                                               

 THE POINT GROUP OF THE MOLECULE IS C1      
 THE ORDER OF THE PRINCIPAL AXIS IS     0

 THE MOMENTS OF INERTIA ARE (AMU-ANGSTROM**2)
 IXX=    38.364   IYY=   105.162   IZZ=   124.911

 ATOM      ATOMIC                      COORDINATES (BOHR)
           CHARGE         X                   Y                   Z
 C           6.0     2.9505889288       -1.1009373626       -0.2327116252
 H           1.0     4.8712192183       -0.9039952290        0.4613210846
 H           1.0     2.2027955807       -2.8550689711        0.5195652722
 H           1.0     3.0428651366       -1.2844631429       -2.2765177660
 C           6.0     1.3444546252        1.1750253520        0.5390398390
 H           1.0     2.2899271254        2.8960360635       -0.0656589954
 H           1.0     1.2472537622        1.2653304360        2.5916303327
 C           6.0    -1.3444535992        1.1750258130       -0.5390389086
 H           1.0    -2.2899263705        2.8960411753        0.0656449776
 H           1.0    -1.2472443157        1.2653180854       -2.5916298325
 C           6.0    -2.9505903917       -1.1009361089        0.2327118928
 H           1.0    -4.8712451753       -0.9039475461       -0.4612397648
 H           1.0    -2.2028512189       -2.8550561144       -0.5196458693
 H           1.0    -3.0427885413       -1.2845212216        2.2765162960

          INTERNUCLEAR DISTANCES (ANGS.)
          ------------------------------

                1 C          2 H          3 H          4 H          5 C     

   1 C       0.0000000    1.0856892 *  1.0847608 *  1.0869847 *  1.5296128 *
   2 H       1.0856892 *  0.0000000    1.7495344 *  1.7537573 *  2.1668135 *
   3 H       1.0847608 *  1.7495344 *  0.0000000    1.7543323 *  2.1804921 *
   4 H       1.0869847 *  1.7537573 *  1.7543323 *  0.0000000    2.1729185 *
   5 C       1.5296128 *  2.1668135 *  2.1804921 *  2.1729185 *  0.0000000  
   6 H       2.1456279 *  2.4468949 *  3.0594175    2.5340566 *  1.0872573 *
   7 H       2.1480609 *  2.5032555 *  2.4924307 *  3.0593829    1.0884509 *
   8 C       2.5773287 *  3.5084746    2.8957788 *  2.8159234 *  1.5330148 *
   9 H       3.4912809    4.2951085    3.8693628    3.7939096    2.1426597 *
  10 H       2.8391464 *  3.7961608    3.2860118    2.6461889 *  2.1512307 *
  11 C       3.1324672    4.1422024    2.8847031 *  3.4397101    2.5773295 *
  12 H       4.1422148    5.1785538    3.9177314    4.3014386    3.5084736  
  13 H       2.8847300 *  3.9177493    2.3953490 *  3.0431557    2.8958014 *
  14 H       3.4396725    4.3013763    3.0430982    4.0219316    2.8159041 *

                6 H          7 H          8 C          9 H         10 H     

   1 C       2.1456279 *  2.1480609 *  2.5773287 *  3.4912809    2.8391464 *
   2 H       2.4468949 *  2.5032555 *  3.5084746    4.2951085    3.7961608  
   3 H       3.0594175    2.4924307 *  2.8957788 *  3.8693628    3.2860118  
   4 H       2.5340566 *  3.0593829    2.8159234 *  3.7939096    2.6461889 *
   5 C       1.0872573 *  1.0884509 *  1.5330148 *  2.1426597 *  2.1512307 *
   6 H       0.0000000    1.7396621 *  2.1426574 *  2.4245501 *  2.4566225 *
   7 H       1.7396621 *  0.0000000    2.1512335 *  2.4566288 *  3.0439749  
   8 C       2.1426574 *  2.1512335 *  0.0000000    1.0872571 *  1.0884511 *
   9 H       2.4245501 *  2.4566288 *  1.0872571 *  0.0000000    1.7396619 *
  10 H       2.4566225 *  3.0439749    1.0884511 *  1.7396619 *  0.0000000  
  11 C       3.4912802    2.8391535 *  1.5296131 *  2.1456304 *  2.1480590 *
  12 H       4.2951055    3.7961529    2.1668139 *  2.4468786 *  2.5032745 *
  13 H       3.8693758    3.2860522    2.1804917 *  3.0594165    2.4924072 *
  14 H       3.7938983    2.6461775 *  2.1729196 *  2.5340826 *  3.0593817  

               11 C         12 H         13 H         14 H     

   1 C       3.1324672    4.1422148    2.8847300 *  3.4396725  
   2 H       4.1422024    5.1785538    3.9177493    4.3013763  
   3 H       2.8847031 *  3.9177314    2.3953490 *  3.0430982  
   4 H       3.4397101    4.3014386    3.0431557    4.0219316  
   5 C       2.5773295 *  3.5084736    2.8958014 *  2.8159041 *
   6 H       3.4912802    4.2951055    3.8693758    3.7938983  
   7 H       2.8391535 *  3.7961529    3.2860522    2.6461775 *
   8 C       1.5296131 *  2.1668139 *  2.1804917 *  2.1729196 *
   9 H       2.1456304 *  2.4468786 *  3.0594165    2.5340826 *
  10 H       2.1480590 *  2.5032745 *  2.4924072 *  3.0593817  
  11 C       0.0000000    1.0856891 *  1.0847608 *  1.0869847 *
  12 H       1.0856891 *  0.0000000    1.7495341 *  1.7537575 *
  13 H       1.0847608 *  1.7495341 *  0.0000000    1.7543321 *
  14 H       1.0869847 *  1.7537575 *  1.7543321 *  0.0000000  

  * ... LESS THAN  3.000


     ATOMIC BASIS SET
     ----------------
 THE CONTRACTED PRIMITIVE FUNCTIONS HAVE BEEN UNNORMALIZED
 THE CONTRACTED BASIS FUNCTIONS ARE NOW NORMALIZED TO UNITY

  SHELL TYPE  PRIMITIVE        EXPONENT          CONTRACTION COEFFICIENT(S)

 C         

      1   S       1          6665.0000000    0.000691583963
      1   S       2          1000.0000000    0.005325796153
      1   S       3           228.0000000    0.027060721042
      1   S       4            64.7100000    0.101656846141
      1   S       5            21.0600000    0.274574823617
      1   S       6             7.4950000    0.448294318924
      1   S       7             2.7970000    0.284902610715
      1   S       8             0.5215000    0.015194859206

      2   S       9          6665.0000000   -0.000293269653
      2   S      10          1000.0000000   -0.002318035474
      2   S      11           228.0000000   -0.011499786039
      2   S      12            64.7100000   -0.046826727010
      2   S      13            21.0600000   -0.128466168750
      2   S      14             7.4950000   -0.301266272463
      2   S      15             2.7970000   -0.255630702330
      2   S      16             0.5215000    1.093793361012

      3   S      17             0.1596000    1.000000000000

      4   P      18             9.4390000    0.056979251590
      4   P      19             2.0020000    0.313207211501
      4   P      20             0.5456000    0.760376741738

      5   P      21             0.1517000    1.000000000000

      6   D      22             0.5500000    1.000000000000

      7   S      23             0.0469000    1.000000000000

      8   P      24             0.0404100    1.000000000000

      9   D      25             0.1510000    1.000000000000

 H         

     10   S      26            13.0100000    0.033498726390
     10   S      27             1.9620000    0.234800801174
     10   S      28             0.4446000    0.813682957883

     11   S      29             0.1220000    1.000000000000

     12   P      30             0.7270000    1.000000000000

     13   S      31             0.0297400    1.000000000000

     14   P      32             0.1410000    1.000000000000

 H         

     15   S      33            13.0100000    0.033498726390
     15   S      34             1.9620000    0.234800801174
     15   S      35             0.4446000    0.813682957883

     16   S      36             0.1220000    1.000000000000

     17   P      37             0.7270000    1.000000000000

     18   S      38             0.0297400    1.000000000000

     19   P      39             0.1410000    1.000000000000

 H         

     20   S      40            13.0100000    0.033498726390
     20   S      41             1.9620000    0.234800801174
     20   S      42             0.4446000    0.813682957883

     21   S      43             0.1220000    1.000000000000

     22   P      44             0.7270000    1.000000000000

     23   S      45             0.0297400    1.000000000000

     24   P      46             0.1410000    1.000000000000

 C         

     25   S      47          6665.0000000    0.000691583963
     25   S      48          1000.0000000    0.005325796153
     25   S      49           228.0000000    0.027060721042
     25   S      50            64.7100000    0.101656846141
     25   S      51            21.0600000    0.274574823617
     25   S      52             7.4950000    0.448294318924
     25   S      53             2.7970000    0.284902610715
     25   S      54             0.5215000    0.015194859206

     26   S      55          6665.0000000   -0.000293269653
     26   S      56          1000.0000000   -0.002318035474
     26   S      57           228.0000000   -0.011499786039
     26   S      58            64.7100000   -0.046826727010
     26   S      59            21.0600000   -0.128466168750
     26   S      60             7.4950000   -0.301266272463
     26   S      61             2.7970000   -0.255630702330
     26   S      62             0.5215000    1.093793361012

     27   S      63             0.1596000    1.000000000000

     28   P      64             9.4390000    0.056979251590
     28   P      65             2.0020000    0.313207211501
     28   P      66             0.5456000    0.760376741738

     29   P      67             0.1517000    1.000000000000

     30   D      68             0.5500000    1.000000000000

     31   S      69             0.0469000    1.000000000000

     32   P      70             0.0404100    1.000000000000

     33   D      71             0.1510000    1.000000000000

 H         

     34   S      72            13.0100000    0.033498726390
     34   S      73             1.9620000    0.234800801174
     34   S      74             0.4446000    0.813682957883

     35   S      75             0.1220000    1.000000000000

     36   P      76             0.7270000    1.000000000000

     37   S      77             0.0297400    1.000000000000

     38   P      78             0.1410000    1.000000000000

 H         

     39   S      79            13.0100000    0.033498726390
     39   S      80             1.9620000    0.234800801174
     39   S      81             0.4446000    0.813682957883

     40   S      82             0.1220000    1.000000000000

     41   P      83             0.7270000    1.000000000000

     42   S      84             0.0297400    1.000000000000

     43   P      85             0.1410000    1.000000000000

 C         

     44   S      86          6665.0000000    0.000691583963
     44   S      87          1000.0000000    0.005325796153
     44   S      88           228.0000000    0.027060721042
     44   S      89            64.7100000    0.101656846141
     44   S      90            21.0600000    0.274574823617
     44   S      91             7.4950000    0.448294318924
     44   S      92             2.7970000    0.284902610715
     44   S      93             0.5215000    0.015194859206

     45   S      94          6665.0000000   -0.000293269653
     45   S      95          1000.0000000   -0.002318035474
     45   S      96           228.0000000   -0.011499786039
     45   S      97            64.7100000   -0.046826727010
     45   S      98            21.0600000   -0.128466168750
     45   S      99             7.4950000   -0.301266272463
     45   S     100             2.7970000   -0.255630702330
     45   S     101             0.5215000    1.093793361012

     46   S     102             0.1596000    1.000000000000

     47   P     103             9.4390000    0.056979251590
     47   P     104             2.0020000    0.313207211501
     47   P     105             0.5456000    0.760376741738

     48   P     106             0.1517000    1.000000000000

     49   D     107             0.5500000    1.000000000000

     50   S     108             0.0469000    1.000000000000

     51   P     109             0.0404100    1.000000000000

     52   D     110             0.1510000    1.000000000000

 H         

     53   S     111            13.0100000    0.033498726390
     53   S     112             1.9620000    0.234800801174
     53   S     113             0.4446000    0.813682957883

     54   S     114             0.1220000    1.000000000000

     55   P     115             0.7270000    1.000000000000

     56   S     116             0.0297400    1.000000000000

     57   P     117             0.1410000    1.000000000000

 H         

     58   S     118            13.0100000    0.033498726390
     58   S     119             1.9620000    0.234800801174
     58   S     120             0.4446000    0.813682957883

     59   S     121             0.1220000    1.000000000000

     60   P     122             0.7270000    1.000000000000

     61   S     123             0.0297400    1.000000000000

     62   P     124             0.1410000    1.000000000000

 C         

     63   S     125          6665.0000000    0.000691583963
     63   S     126          1000.0000000    0.005325796153
     63   S     127           228.0000000    0.027060721042
     63   S     128            64.7100000    0.101656846141
     63   S     129            21.0600000    0.274574823617
     63   S     130             7.4950000    0.448294318924
     63   S     131             2.7970000    0.284902610715
     63   S     132             0.5215000    0.015194859206

     64   S     133          6665.0000000   -0.000293269653
     64   S     134          1000.0000000   -0.002318035474
     64   S     135           228.0000000   -0.011499786039
     64   S     136            64.7100000   -0.046826727010
     64   S     137            21.0600000   -0.128466168750
     64   S     138             7.4950000   -0.301266272463
     64   S     139             2.7970000   -0.255630702330
     64   S     140             0.5215000    1.093793361012

     65   S     141             0.1596000    1.000000000000

     66   P     142             9.4390000    0.056979251590
     66   P     143             2.0020000    0.313207211501
     66   P     144             0.5456000    0.760376741738

     67   P     145             0.1517000    1.000000000000

     68   D     146             0.5500000    1.000000000000

     69   S     147             0.0469000    1.000000000000

     70   P     148             0.0404100    1.000000000000

     71   D     149             0.1510000    1.000000000000

 H         

     72   S     150            13.0100000    0.033498726390
     72   S     151             1.9620000    0.234800801174
     72   S     152             0.4446000    0.813682957883

     73   S     153             0.1220000    1.000000000000

     74   P     154             0.7270000    1.000000000000

     75   S     155             0.0297400    1.000000000000

     76   P     156             0.1410000    1.000000000000

 H         

     77   S     157            13.0100000    0.033498726390
     77   S     158             1.9620000    0.234800801174
     77   S     159             0.4446000    0.813682957883

     78   S     160             0.1220000    1.000000000000

     79   P     161             0.7270000    1.000000000000

     80   S     162             0.0297400    1.000000000000

     81   P     163             0.1410000    1.000000000000

 H         

     82   S     164            13.0100000    0.033498726390
     82   S     165             1.9620000    0.234800801174
     82   S     166             0.4446000    0.813682957883

     83   S     167             0.1220000    1.000000000000

     84   P     168             0.7270000    1.000000000000

     85   S     169             0.0297400    1.000000000000

     86   P     170             0.1410000    1.000000000000

 TOTAL NUMBER OF BASIS SET SHELLS             =   86
 NUMBER OF CARTESIAN GAUSSIAN BASIS FUNCTIONS =  190
 NOTE: THIS RUN WILL RESTRICT THE MO VARIATION SPACE TO SPHERICAL HARMONICS.
 THE NUMBER OF ORBITALS KEPT IN THE VARIATIONAL SPACE WILL BE PRINTED LATER.
 NUMBER OF ELECTRONS                          =   34
 CHARGE OF MOLECULE                           =    0
 SPIN MULTIPLICITY                            =    1
 NUMBER OF OCCUPIED ORBITALS (ALPHA)          =   17
 NUMBER OF OCCUPIED ORBITALS (BETA )          =   17
 TOTAL NUMBER OF ATOMS                        =   14
 THE NUCLEAR REPULSION ENERGY IS      132.6608250796

     $CONTRL OPTIONS
     ---------------
 SCFTYP=RHF          RUNTYP=ENERGY       EXETYP=RUN     
 MPLEVL=       2     CITYP =NONE         CCTYP =NONE         VBTYP =NONE    
 DFTTYP=NONE         TDDFT =NONE    
 MULT  =       1     ICHARG=       0     NZVAR =       0     COORD =PRINAXIS
 PP    =NONE         RELWFN=NONE         LOCAL =NONE         NUMGRD=       F
 ISPHER=       1     NOSYM =       0     MAXIT =     200     UNITS =ANGS    
 PLTORB=       F     MOLPLT=       F     AIMPAC=       F     FRIEND=        
 NPRINT=       7     IREST =       0     GEOM  =INPUT   
 NORMF =       0     NORMP =       0     ITOL  =      20     ICUT  =       9
 INTTYP=BEST         GRDTYP=BEST         QMTTOL= 1.0E-06

     $SYSTEM OPTIONS
     ---------------
  REPLICATED MEMORY=     5000000 WORDS (ON EVERY NODE).
 DISTRIBUTED MEMDDI=         100 MILLION WORDS IN AGGREGATE,
 MEMDDI DISTRIBUTED OVER   8 PROCESSORS IS    12500000 WORDS/PROCESSOR.
 TOTAL MEMORY REQUESTED ON EACH PROCESSOR=    17500000 WORDS.
 TIMLIM=       50000.00 MINUTES, OR      34.7 DAYS.
 PARALL= T  BALTYP=  DLB     KDIAG=    0  COREFL= F
 MXSEQ2=     300 MXSEQ3=     150

          ----------------
          PROPERTIES INPUT
          ----------------

     MOMENTS            FIELD           POTENTIAL          DENSITY
 IEMOM =       1   IEFLD =       0   IEPOT =       0   IEDEN =       0
 WHERE =COMASS     WHERE =NUCLEI     WHERE =NUCLEI     WHERE =NUCLEI  
 OUTPUT=BOTH       OUTPUT=BOTH       OUTPUT=BOTH       OUTPUT=BOTH    
 IEMINT=       0   IEFINT=       0                     IEDINT=       0
                                                       MORB  =       0
          EXTRAPOLATION IN EFFECT
          SOSCF IN EFFECT
 ORBITAL PRINTING OPTION: NPREO=     1   190     2     1

     -------------------------------
     INTEGRAL TRANSFORMATION OPTIONS
     -------------------------------
     NWORD  =            0
     CUTOFF = 1.0E-09     MPTRAN =       0
     DIRTRF =       T     AOINTS =DUP     

          ----------------------
          INTEGRAL INPUT OPTIONS
          ----------------------
 NOPK  =       1 NORDER=       0 SCHWRZ=       T

          -----------------------
          MP2 CONTROL INFORMATION
          -----------------------
          NACORE =        4  NBCORE =        4
          LMOMP2 =        F  AOINTS = DUP     
          METHOD =        2  NWORD  =               0
          MP2PRP =        F  OSPT   = NONE    
          CUTOFF = 1.00E-09  CPHFBS = BASISAO 
          CODE   = DDI     

          NUMBER OF CORE -A-  ORBITALS =     4
          NUMBER OF CORE -B-  ORBITALS =     4
          NUMBER OF OCC. -A-  ORBITALS =    17
          NUMBER OF OCC. -B-  ORBITALS =    17
          NUMBER OF MOLECULAR ORBITALS =   190
          NUMBER OF   BASIS  FUNCTIONS =   190


     ------------------------------------------
     THE POINT GROUP IS C1 , NAXIS= 0, ORDER= 1
     ------------------------------------------

 -- VARIATIONAL SPACE WILL BE RESTRICTED TO PURE SPHERICAL HARMONICS ONLY --
 AFTER EXCLUDING CONTAMINANT COMBINATIONS FROM THE CARTESIAN GAUSSIAN BASIS
 SET, THE NUMBER OF SPHERICAL HARMONICS KEPT IN THE VARIATION SPACE IS  182

     DIMENSIONS OF THE SYMMETRY SUBSPACES ARE
 A   =  182

 ..... DONE SETTING UP THE RUN .....
 CPU     0: STEP CPU TIME=     0.02 TOTAL CPU TIME=        0.0 (    0.0 MIN)
 TOTAL WALL CLOCK TIME=        0.0 SECONDS, CPU UTILIZATION IS  50.00%

          ********************
          1 ELECTRON INTEGRALS
          ********************
 ...... END OF ONE-ELECTRON INTEGRALS ......
 CPU     0: STEP CPU TIME=     0.01 TOTAL CPU TIME=        0.0 (    0.0 MIN)
 TOTAL WALL CLOCK TIME=        0.1 SECONDS, CPU UTILIZATION IS  60.00%

          -------------
          GUESS OPTIONS
          -------------
          GUESS =HUCKEL            NORB  =       0          NORDER=       0
          MIX   =       F          PRTMO =       F          PUNMO =       F
          TOLZ  = 1.0E-08          TOLE  = 1.0E-05
          SYMDEN=       F          PURIFY=       F

 INITIAL GUESS ORBITALS GENERATED BY HUCKEL   ROUTINE.
 HUCKEL GUESS REQUIRES    272744 WORDS.

 STATISTICS FOR GENERATION OF SYMMETRY ORBITAL -Q- MATRIX
 NUMBER OF CARTESIAN ATOMIC ORBITALS=        190
 NUMBER OF SPHERICAL CONTAMINANTS DROPPED=     8
 NUMBER OF LINEARLY DEPENDENT MOS DROPPED=     0
 TOTAL NUMBER OF MOS IN VARIATION SPACE=     182

 SYMMETRIES FOR INITIAL GUESS ORBITALS FOLLOW.   BOTH SET(S).
    17 ORBITALS ARE OCCUPIED (    4 CORE ORBITALS).
     5=A        6=A        7=A        8=A        9=A       10=A       11=A   
    12=A       13=A       14=A       15=A       16=A       17=A       18=A   
    19=A       20=A       21=A       22=A       23=A       24=A       25=A   
    26=A       27=A   
 ...... END OF INITIAL ORBITAL SELECTION ......
 CPU     0: STEP CPU TIME=     0.07 TOTAL CPU TIME=        0.1 (    0.0 MIN)
 TOTAL WALL CLOCK TIME=        0.2 SECONDS, CPU UTILIZATION IS  58.82%

                    ----------------------
                    AO INTEGRAL TECHNOLOGY
                    ----------------------
     S,P,L SHELL ROTATED AXIS INTEGRALS, REPROGRAMMED BY
        KAZUYA ISHIMURA (IMS) AND JOSE SIERRA (SYNSTAR).
     S,P,D,L SHELL ROTATED AXIS INTEGRALS PROGRAMMED BY
        KAZUYA ISHIMURA (INSTITUTE FOR MOLECULAR SCIENCE).
     S,P,D,F,G SHELL TO TOTAL QUARTET ANGULAR MOMENTUM SUM 5,
        ERIC PROGRAM BY GRAHAM FLETCHER (ELORET AND NASA ADVANCED
        SUPERCOMPUTING DIVISION, AMES RESEARCH CENTER).
     S,P,D,F,G,L SHELL GENERAL RYS QUADRATURE PROGRAMMED BY
        MICHEL DUPUIS (PACIFIC NORTHWEST NATIONAL LABORATORY).

          --------------------
          2 ELECTRON INTEGRALS
          --------------------

 DIRECT SCF METHOD SKIPS INTEGRAL STORAGE ON DISK.
 DIRECT TRANSFORMATION SKIPS AO INTEGRAL STORAGE ON DISK.
  ...... END OF TWO-ELECTRON INTEGRALS .....
 CPU     0: STEP CPU TIME=     0.02 TOTAL CPU TIME=        0.1 (    0.0 MIN)
 TOTAL WALL CLOCK TIME=        0.2 SECONDS, CPU UTILIZATION IS  63.16%

          --------------------------
                 RHF SCF CALCULATION
          --------------------------

     NUCLEAR ENERGY =       132.6608250796
     MAXIT =  200     NPUNCH=    2
     EXTRAP=T  DAMP=F  SHIFT=F  RSTRCT=F  DIIS=F  DEM=F  SOSCF=T
     DENSITY MATRIX CONV=  2.00E-08
     SOSCF WILL OPTIMIZE    2805 ORBITAL ROTATIONS, SOGTOL=   0.250
     MEMORY REQUIRED FOR RHF ITERS=    319458 WORDS.

 DIRECT SCF CALCULATION, SCHWRZ=T   FDIFF=F,  DIRTHR=  0.00E+00 NITDIR=10
 SCHWARZ INEQUALITY OVERHEAD:     18145 INTEGRALS, T=        0.00

                                                                                   NONZERO     BLOCKS
 ITER EX DEM     TOTAL ENERGY        E CHANGE  DENSITY CHANGE     ORB. GRAD      INTEGRALS    SKIPPED
   1  0  0     -156.9209038656  -156.9209038656   0.772456861   0.000000000      160662503      92828
          ---------------START SECOND ORDER SCF---------------
   2  1  0     -157.2864944999    -0.3655906343   0.158236986   0.017972863      160758692      99292
   3  2  0     -157.3089743188    -0.0224798189   0.025283064   0.008345451      160761888      99131
   4  3  0     -157.3132190246    -0.0042447058   0.013734385   0.001238661      160762509      99018
   5  4  0     -157.3133622573    -0.0001432327   0.002342500   0.000270656      160758734      99210
   6  5  0     -157.3133697533    -0.0000074960   0.000583559   0.000085119      160758522      99239
   7  6  0     -157.3133704212    -0.0000006679   0.000291032   0.000022069      160758303      99243
   8  7  0     -157.3133704644    -0.0000000432   0.000033418   0.000005697      160758339      99239
   9  8  0     -157.3133704661    -0.0000000018   0.000010399   0.000000956      160758334      99240
  10  9  0     -157.3133704662    -0.0000000001   0.000004404   0.000000198      160758334      99240
  11 10  0     -157.3133704662    -0.0000000000   0.000000474   0.000000054      160758334      99240
  12 11  0     -157.3133704662     0.0000000000   0.000000291   0.000000014      160758334      99240
  13 12  0     -157.3133704662    -0.0000000000   0.000000000   0.000000002      160758334      99240

          -----------------
          DENSITY CONVERGED
          -----------------
     TIME TO FORM FOCK OPERATORS=      29.5 SECONDS (       2.3 SEC/ITER)
     FOCK TIME ON FIRST ITERATION=       2.5, LAST ITERATION=       2.2
     TIME TO SOLVE SCF EQUATIONS=       0.1 SECONDS (       0.0 SEC/ITER)

 FINAL RHF ENERGY IS     -157.3133704662 AFTER  13 ITERATIONS

          ------------
          EIGENVECTORS
          ------------

                      1          2          3          4          5
                  -11.2189   -11.2183   -11.2127   -11.2127    -1.0701
                     A          A          A          A          A   
    1  C  1  S    0.032814   0.038458  -0.706838   0.711172  -0.011173
    2  C  1  S   -0.000346   0.000332  -0.005497   0.005382   0.158825
    3  C  1  S    0.010307   0.001497   0.029102  -0.026533   0.025504
    4  C  1  X   -0.000032  -0.000140  -0.000031   0.000057  -0.034079
    5  C  1  Y    0.000085   0.000174   0.000063  -0.000094   0.037722
    6  C  1  Z    0.000048   0.000050   0.000013  -0.000045   0.011095
    7  C  1  X   -0.007146  -0.004194  -0.004838   0.003749   0.011103
    8  C  1  Y    0.009672   0.002845   0.006082  -0.004577   0.033733
    9  C  1  Z    0.002422   0.000648   0.002950  -0.001703   0.019870
   10  C  1 XX    0.000035   0.000088  -0.000064  -0.000055  -0.000371
   11  C  1 YY   -0.000017  -0.000078   0.000135  -0.000037   0.004555
   12  C  1 ZZ   -0.000017  -0.000010  -0.000071   0.000092  -0.004183
   13  C  1 XY   -0.000014   0.000018  -0.000142   0.000148  -0.008984
   14  C  1 XZ    0.000018   0.000040  -0.000055   0.000053  -0.003538
   15  C  1 YZ    0.000005  -0.000058   0.000075  -0.000072   0.003950
   16  C  1  S   -0.000363  -0.006111   0.008560  -0.005761   0.045854
   17  C  1  X   -0.000589   0.000881  -0.001571   0.000122  -0.009692
   18  C  1  Y    0.001095  -0.000717   0.000925  -0.000603   0.019363
   19  C  1  Z    0.000175  -0.000355   0.000173  -0.000276   0.004147
   20  C  1 XX    0.000146   0.000264  -0.000462   0.000380  -0.012709
   21  C  1 YY    0.000983   0.000330   0.001004  -0.001067   0.011770
   22  C  1 ZZ   -0.001129  -0.000594  -0.000542   0.000687   0.000939
   23  C  1 XY   -0.002205  -0.001260  -0.001046   0.001050   0.002011
   24  C  1 XZ   -0.000268  -0.000632  -0.000920   0.000271  -0.004872
   25  C  1 YZ    0.000990   0.000285   0.001006  -0.000505   0.005455
   26  H  2  S   -0.000148  -0.000014  -0.000257   0.000313   0.061419
   27  H  2  S    0.003327   0.004447  -0.002993   0.003307   0.000032
   28  H  2  X    0.000072   0.000047  -0.000173   0.000142  -0.008915
   29  H  2  Y   -0.000040   0.000022  -0.000103   0.000068  -0.000954
   30  H  2  Z   -0.000006   0.000028  -0.000106   0.000080  -0.003108
   31  H  2  S    0.000583  -0.000543   0.001109   0.000533   0.004057
   32  H  2  X   -0.000674  -0.001262   0.001283  -0.001227   0.004691
   33  H  2  Y   -0.000196   0.000173  -0.000387   0.000268  -0.009559
   34  H  2  Z   -0.000404  -0.000182   0.000236  -0.000180  -0.003802
   35  H  3  S   -0.000049  -0.000052  -0.000338   0.000299   0.066966
   36  H  3  S    0.004016   0.000586  -0.006158   0.005571   0.021925
   37  H  3  X    0.000062  -0.000007   0.000107  -0.000080   0.002744
   38  H  3  Y   -0.000095  -0.000006   0.000088  -0.000168   0.008770
   39  H  3  Z    0.000028  -0.000010  -0.000083   0.000104  -0.004037
   40  H  3  S    0.000611   0.000327  -0.000816   0.000151   0.007959
   41  H  3  X    0.000492   0.000107   0.000159   0.000652   0.001598
   42  H  3  Y    0.000626  -0.000260  -0.002057   0.001804   0.006130
   43  H  3  Z   -0.000374  -0.000231   0.000612  -0.000816  -0.003642
   44  H  4  S   -0.000114  -0.000018  -0.000286   0.000332   0.066021
   45  H  4  S    0.002280   0.001206  -0.003728   0.003820   0.020867
   46  H  4  X    0.000092  -0.000018   0.000012  -0.000041  -0.001316
   47  H  4  Y   -0.000053   0.000008  -0.000018   0.000024   0.000693
   48  H  4  Z   -0.000066   0.000013   0.000185  -0.000205   0.009487
   49  H  4  S    0.000216   0.000127  -0.000609   0.000194   0.003122
   50  H  4  X    0.000511  -0.000232   0.000038  -0.000305  -0.002168
   51  H  4  Y   -0.000185  -0.000159  -0.000290   0.000522  -0.002709
   52  H  4  Z    0.000378  -0.000022  -0.001257   0.001298   0.006760
   53  C  5  S    0.709206   0.709262   0.038410  -0.033613  -0.018690
   54  C  5  S    0.005620   0.005952   0.000163  -0.000631   0.234075
   55  C  5  S   -0.026883  -0.037488  -0.002952   0.008129   0.091899
   56  C  5  X   -0.000094   0.000173  -0.000011   0.000159  -0.029097
   57  C  5  Y   -0.000030  -0.000029   0.000147  -0.000071  -0.025475
   58  C  5  Z   -0.000073   0.000068   0.000070  -0.000002  -0.023826
   59  C  5  X   -0.006963   0.015623  -0.009789   0.004054  -0.019133
   60  C  5  Y    0.007271   0.004600   0.008113  -0.006392  -0.049980
   61  C  5  Z    0.003567   0.007693   0.000107  -0.002894  -0.070560
   62  C  5 XX   -0.000120  -0.000163   0.000079  -0.000029   0.009263
   63  C  5 YY    0.000021   0.000053  -0.000065  -0.000010  -0.002691
   64  C  5 ZZ    0.000099   0.000110  -0.000014   0.000039  -0.006572
   65  C  5 XY    0.000243   0.000044  -0.000036  -0.000010  -0.007250
   66  C  5 XZ   -0.000069  -0.000078   0.000055   0.000009   0.004720
   67  C  5 YZ   -0.000076  -0.000027  -0.000018  -0.000026   0.003219
   68  C  5  S   -0.004212   0.002340   0.008777   0.000505  -0.062641
   69  C  5  X   -0.000887   0.001317  -0.004220   0.000597  -0.011301
   70  C  5  Y    0.000193  -0.001412   0.000755  -0.000517   0.011005
   71  C  5  Z    0.000369  -0.000107  -0.000757  -0.000491   0.008946
   72  C  5 XX    0.000615  -0.003746   0.000680   0.000273  -0.004798
   73  C  5 YY   -0.001623   0.001639  -0.001501   0.000853   0.011332
   74  C  5 ZZ    0.001007   0.002107   0.000821  -0.001126  -0.006534
   75  C  5 XY    0.002457   0.000496   0.002818  -0.001583  -0.015614
   76  C  5 XZ    0.000560  -0.002916   0.001262  -0.000883   0.022095
   77  C  5 YZ   -0.001749  -0.000880  -0.000499   0.000757   0.025423
   78  H  6  S    0.000130   0.000294   0.000058  -0.000131   0.097986
   79  H  6  S    0.004400  -0.002502  -0.004527   0.002282   0.038882
   80  H  6  X    0.000109  -0.000000   0.000050  -0.000034  -0.006348
   81  H  6  Y    0.000127   0.000129  -0.000039   0.000015  -0.011895
   82  H  6  Z   -0.000086  -0.000073  -0.000002   0.000031   0.003954
   83  H  6  S    0.000418   0.000260   0.000717   0.000241  -0.001485
   84  H  6  X   -0.000988  -0.000174   0.000747  -0.000311   0.005313
   85  H  6  Y   -0.001593   0.000103   0.000818  -0.000340  -0.006300
   86  H  6  Z    0.000456   0.000027  -0.000361   0.000134   0.000073
   87  H  7  S    0.000140   0.000303   0.000099  -0.000081   0.099991
   88  H  7  S    0.001862  -0.000780  -0.001616   0.003881   0.062790
   89  H  7  X    0.000043  -0.000088   0.000100   0.000026  -0.000036
   90  H  7  Y   -0.000011  -0.000014  -0.000025   0.000053  -0.001167
   91  H  7  Z    0.000157   0.000133   0.000037   0.000025  -0.013754
   92  H  7  S   -0.000161   0.000387  -0.000240   0.000526  -0.007467
   93  H  7  X    0.000272  -0.000258   0.000077   0.000092  -0.005501
   94  H  7  Y   -0.000111   0.000037  -0.000169   0.000060  -0.004360
   95  H  7  Z   -0.000974  -0.000713   0.000092  -0.000851  -0.013615
   96  C  8  S    0.709206  -0.709262  -0.038606  -0.033387  -0.018690
   97  C  8  S    0.005620  -0.005952  -0.000167  -0.000630   0.234075
   98  C  8  S   -0.026883   0.037488   0.002999   0.008112   0.091899
   99  C  8  X    0.000094   0.000173  -0.000012  -0.000159   0.029097
  100  C  8  Y   -0.000030   0.000029  -0.000147  -0.000070  -0.025475
  101  C  8  Z    0.000073   0.000068   0.000070   0.000001   0.023826
  102  C  8  X    0.006962   0.015623  -0.009812  -0.003997   0.019134
  103  C  8  Y    0.007271  -0.004600  -0.008150  -0.006344  -0.049979
  104  C  8  Z   -0.003567   0.007693   0.000124   0.002893   0.070560
  105  C  8 XX   -0.000120   0.000163  -0.000079  -0.000028   0.009263
  106  C  8 YY    0.000021  -0.000053   0.000065  -0.000011  -0.002691
  107  C  8 ZZ    0.000099  -0.000110   0.000014   0.000039  -0.006572
  108  C  8 XY   -0.000243   0.000044  -0.000036   0.000010   0.007250
  109  C  8 XZ   -0.000069   0.000078  -0.000055   0.000009   0.004720
  110  C  8 YZ    0.000076  -0.000027  -0.000018   0.000026  -0.003219
  111  C  8  S   -0.004212  -0.002340  -0.008774   0.000556  -0.062639
  112  C  8  X    0.000887   0.001317  -0.004224  -0.000572   0.011302
  113  C  8  Y    0.000193   0.001412  -0.000758  -0.000513   0.011004
  114  C  8  Z   -0.000369  -0.000107  -0.000755   0.000496  -0.008946
  115  C  8 XX    0.000615   0.003746  -0.000679   0.000277  -0.004798
  116  C  8 YY   -0.001623  -0.001639   0.001506   0.000844   0.011332
  117  C  8 ZZ    0.001007  -0.002107  -0.000827  -0.001121  -0.006534
  118  C  8 XY   -0.002457   0.000496   0.002827   0.001567   0.015615
  119  C  8 XZ    0.000560   0.002916  -0.001267  -0.000875   0.022095
  120  C  8 YZ    0.001749  -0.000880  -0.000504  -0.000754  -0.025423
  121  H  9  S    0.000130  -0.000294  -0.000059  -0.000130   0.097986
  122  H  9  S    0.004399   0.002502   0.004540   0.002256   0.038884
  123  H  9  X   -0.000109  -0.000000   0.000050   0.000034   0.006348
  124  H  9  Y    0.000127  -0.000129   0.000039   0.000015  -0.011895
  125  H  9  Z    0.000086  -0.000073  -0.000002  -0.000031  -0.003953
  126  H  9  S    0.000418  -0.000260  -0.000716   0.000246  -0.001484
  127  H  9  X    0.000988  -0.000174   0.000748   0.000306  -0.005313
  128  H  9  Y   -0.001593  -0.000103  -0.000820  -0.000336  -0.006300
  129  H  9  Z   -0.000456   0.000027  -0.000362  -0.000132  -0.000073
  130  H 10  S    0.000140  -0.000303  -0.000099  -0.000080   0.099992
  131  H 10  S    0.001863   0.000779   0.001638   0.003871   0.062788
  132  H 10  X   -0.000043  -0.000088   0.000100  -0.000027   0.000036
  133  H 10  Y   -0.000011   0.000014   0.000025   0.000053  -0.001167
  134  H 10  Z   -0.000157   0.000133   0.000037  -0.000025   0.013754
  135  H 10  S   -0.000161  -0.000387   0.000242   0.000525  -0.007467
  136  H 10  X   -0.000272  -0.000258   0.000076  -0.000092   0.005501
  137  H 10  Y   -0.000110  -0.000037   0.000169   0.000059  -0.004360
  138  H 10  Z    0.000974  -0.000713   0.000097   0.000851   0.013615
  139  C 11  S    0.032814  -0.038458   0.710987   0.707024  -0.011173
  140  C 11  S   -0.000346  -0.000332   0.005529   0.005350   0.158825
  141  C 11  S    0.010307  -0.001497  -0.029257  -0.026362   0.025505
  142  C 11  X    0.000032  -0.000140  -0.000031  -0.000056   0.034079
  143  C 11  Y    0.000085  -0.000174  -0.000063  -0.000093   0.037722
  144  C 11  Z   -0.000048   0.000050   0.000014   0.000045  -0.011095
  145  C 11  X    0.007146  -0.004194  -0.004860  -0.003721  -0.011103
  146  C 11  Y    0.009672  -0.002845  -0.006109  -0.004542   0.033733
  147  C 11  Z   -0.002422   0.000648   0.002960   0.001686  -0.019869
  148  C 11 XX    0.000035  -0.000088   0.000064  -0.000055  -0.000371
  149  C 11 YY   -0.000017   0.000078  -0.000136  -0.000036   0.004554
  150  C 11 ZZ   -0.000017   0.000010   0.000072   0.000091  -0.004183
  151  C 11 XY    0.000014   0.000018  -0.000143  -0.000147   0.008984
  152  C 11 XZ    0.000018  -0.000040   0.000055   0.000053  -0.003538
  153  C 11 YZ   -0.000005  -0.000058   0.000075   0.000071  -0.003950
  154  C 11  S   -0.000363   0.006111  -0.008594  -0.005710   0.045852
  155  C 11  X    0.000589   0.000881  -0.001572  -0.000112   0.009691
  156  C 11  Y    0.001095   0.000717  -0.000928  -0.000598   0.019362
  157  C 11  Z   -0.000175  -0.000355   0.000175   0.000275  -0.004146
  158  C 11 XX    0.000146  -0.000264   0.000464   0.000377  -0.012709
  159  C 11 YY    0.000983  -0.000330  -0.001011  -0.001061   0.011771
  160  C 11 ZZ   -0.001129   0.000594   0.000546   0.000684   0.000938
  161  C 11 XY    0.002205  -0.001260  -0.001052  -0.001044  -0.002011
  162  C 11 XZ   -0.000268   0.000632   0.000921   0.000265  -0.004874
  163  C 11 YZ   -0.000990   0.000285   0.001009   0.000499  -0.005455
  164  H 12  S   -0.000148   0.000014   0.000259   0.000312   0.061419
  165  H 12  S    0.003327  -0.004447   0.003013   0.003289   0.000034
  166  H 12  X   -0.000072   0.000047  -0.000174  -0.000141   0.008915
  167  H 12  Y   -0.000040  -0.000022   0.000104   0.000067  -0.000954
  168  H 12  Z    0.000006   0.000028  -0.000107  -0.000079   0.003107
  169  H 12  S    0.000583   0.000543  -0.001106   0.000540   0.004057
  170  H 12  X    0.000674  -0.001262   0.001291   0.001220  -0.004690
  171  H 12  Y   -0.000196  -0.000173   0.000389   0.000266  -0.009559
  172  H 12  Z    0.000404  -0.000182   0.000237   0.000179   0.003802
  173  H 13  S   -0.000049   0.000052   0.000339   0.000297   0.066966
  174  H 13  S    0.004016  -0.000586   0.006191   0.005534   0.021924
  175  H 13  X   -0.000062  -0.000007   0.000107   0.000080  -0.002744
  176  H 13  Y   -0.000095   0.000006  -0.000089  -0.000167   0.008770
  177  H 13  Z   -0.000028  -0.000010  -0.000084  -0.000104   0.004037
  178  H 13  S    0.000611  -0.000327   0.000817   0.000146   0.007960
  179  H 13  X   -0.000492   0.000107   0.000155  -0.000653  -0.001598
  180  H 13  Y    0.000625   0.000260   0.002067   0.001792   0.006130
  181  H 13  Z    0.000374  -0.000232   0.000617   0.000813   0.003642
  182  H 14  S   -0.000114   0.000018   0.000288   0.000331   0.066022
  183  H 14  S    0.002280  -0.001206   0.003751   0.003798   0.020866
  184  H 14  X   -0.000092  -0.000018   0.000012   0.000041   0.001316
  185  H 14  Y   -0.000053  -0.000008   0.000018   0.000024   0.000694
  186  H 14  Z    0.000066   0.000013   0.000186   0.000204  -0.009487
  187  H 14  S    0.000216  -0.000127   0.000611   0.000190   0.003122
  188  H 14  X   -0.000511  -0.000232   0.000039   0.000305   0.002169
  189  H 14  Y   -0.000185   0.000159   0.000294   0.000520  -0.002709
  190  H 14  Z   -0.000378  -0.000022  -0.001264  -0.001291  -0.006759

                      6          7          8          9         10
                   -0.9774    -0.8763    -0.7774    -0.6246    -0.6177
                     A          A          A          A          A   
    1  C  1  S    0.015272  -0.008986   0.003390  -0.001058   0.002218
    2  C  1  S   -0.240424   0.213853  -0.117513   0.017642  -0.012922
    3  C  1  S   -0.037773   0.008737  -0.026168  -0.024729   0.026315
    4  C  1  X    0.008123   0.036643  -0.047398   0.026827  -0.206635
    5  C  1  Y   -0.026538  -0.054235   0.097642  -0.125624  -0.070625
    6  C  1  Z   -0.010004  -0.011657   0.055192   0.136673   0.014037
    7  C  1  X   -0.003251   0.029501  -0.006874   0.020932  -0.042013
    8  C  1  Y    0.013272  -0.066892   0.048761  -0.072171   0.003628
    9  C  1  Z   -0.001450  -0.035977   0.025433   0.016829   0.005323
   10  C  1 XX    0.001377   0.000363  -0.002026   0.006441  -0.002934
   11  C  1 YY   -0.004417  -0.003538   0.007522  -0.002953   0.003844
   12  C  1 ZZ    0.003040   0.003176  -0.005496  -0.003488  -0.000910
   13  C  1 XY    0.005481   0.006945  -0.008310   0.008638  -0.002825
   14  C  1 XZ    0.001592   0.002059  -0.003708  -0.003158  -0.009500
   15  C  1 YZ   -0.003070  -0.002563   0.007460  -0.002012  -0.003922
   16  C  1  S   -0.012351   0.083596  -0.035750   0.020359   0.003633
   17  C  1  X    0.009757  -0.015867   0.006968  -0.004805  -0.003387
   18  C  1  Y   -0.011143   0.016422  -0.006472  -0.009296  -0.004275
   19  C  1  Z    0.001671   0.001355  -0.003283   0.019871   0.006439
   20  C  1 XX    0.001848   0.007095  -0.016330  -0.013137  -0.004434
   21  C  1 YY    0.000427  -0.011119   0.006419  -0.009665  -0.001983
   22  C  1 ZZ   -0.002275   0.004024   0.009911   0.022802   0.006417
   23  C  1 XY   -0.008976   0.001811   0.003533  -0.017230   0.004742
   24  C  1 XZ    0.002755   0.006079  -0.001629   0.026423   0.016930
   25  C  1 YZ   -0.006163  -0.003309   0.004447  -0.013283   0.023787
   26  H  2  S   -0.117778   0.125963  -0.076405   0.061884  -0.176695
   27  H  2  S   -0.026313   0.037231  -0.027918   0.015596  -0.092260
   28  H  2  X    0.014991  -0.014374   0.008120  -0.004535   0.009492
   29  H  2  Y    0.001867  -0.002525   0.002378  -0.003003  -0.000983
   30  H  2  Z    0.005535  -0.005741   0.003941   0.001632   0.005574
   31  H  2  S   -0.003230   0.005442  -0.005376   0.004153  -0.001358
   32  H  2  X    0.006873  -0.017010   0.013697   0.006024   0.010053
   33  H  2  Y    0.008866   0.006278  -0.010347   0.012022   0.000999
   34  H  2  Z    0.004207  -0.003153  -0.002748  -0.012970  -0.004103
   35  H  3  S   -0.108035   0.131933  -0.094865   0.134960   0.115903
   36  H  3  S    0.006612   0.027472  -0.033632   0.029537   0.083738
   37  H  3  X   -0.005654   0.006948  -0.005534   0.005223  -0.002710
   38  H  3  Y   -0.012735   0.012741  -0.007474   0.007084   0.006000
   39  H  3  Z    0.005208  -0.005954   0.005553  -0.001042  -0.003020
   40  H  3  S   -0.009168   0.001289   0.000868  -0.016968  -0.007821
   41  H  3  X   -0.014400   0.002351  -0.002491  -0.006070   0.008178
   42  H  3  Y    0.005388   0.008889  -0.010961  -0.007687   0.010007
   43  H  3  Z   -0.002331  -0.005239  -0.001662  -0.005138  -0.003545
   44  H  4  S   -0.111021   0.121611  -0.112568  -0.098666  -0.022165
   45  H  4  S   -0.010765  -0.004891  -0.045713  -0.038298  -0.048002
   46  H  4  X    0.000411   0.000343  -0.000734   0.001382  -0.006384
   47  H  4  Y   -0.001930   0.000464   0.001352  -0.003968  -0.001708
   48  H  4  Z   -0.015394   0.015358  -0.011214  -0.003425  -0.002257
   49  H  4  S    0.000978   0.001353  -0.002563   0.014811   0.007307
   50  H  4  X   -0.002742   0.000715   0.000925   0.006945   0.010363
   51  H  4  Y    0.002873   0.004105  -0.002102   0.004013   0.007418
   52  H  4  Z   -0.004468  -0.001351  -0.011949   0.008807  -0.017165
   53  C  5  S    0.008929   0.005001  -0.005066   0.000982   0.000783
   54  C  5  S   -0.141798  -0.153812   0.207475  -0.028832   0.019264
   55  C  5  S   -0.014253   0.014197   0.054145  -0.048082   0.058532
   56  C  5  X   -0.079074   0.083853   0.067363  -0.098704  -0.151617
   57  C  5  Y    0.040243  -0.084747   0.055401  -0.058606  -0.174599
   58  C  5  Z    0.002792  -0.000822   0.092213   0.214467  -0.009163
   59  C  5  X   -0.149198   0.097699   0.015162   0.011463  -0.081472
   60  C  5  Y    0.114716  -0.083758  -0.031691  -0.032224  -0.068551
   61  C  5  Z   -0.010286  -0.003706   0.033355   0.092969  -0.022130
   62  C  5 XX    0.006466  -0.006880  -0.008835   0.001194   0.000600
   63  C  5 YY   -0.009633   0.009403   0.001688  -0.008405  -0.002525
   64  C  5 ZZ    0.003166  -0.002523   0.007147   0.007211   0.001925
   65  C  5 XY    0.010593  -0.008411   0.006723  -0.007687  -0.000903
   66  C  5 XZ    0.007726  -0.008924  -0.007500  -0.000187   0.009483
   67  C  5 YZ   -0.003906   0.006256  -0.002984  -0.000250   0.008323
   68  C  5  S    0.026592  -0.080509   0.020702   0.041188   0.020913
   69  C  5  X   -0.017144  -0.002717   0.010717  -0.019405   0.000305
   70  C  5  Y    0.002161   0.013265  -0.006677   0.026799   0.000191
   71  C  5  Z   -0.007113   0.012563   0.004674  -0.023320  -0.003085
   72  C  5 XX    0.018663  -0.010288   0.000737   0.002926  -0.041451
   73  C  5 YY   -0.024971   0.012947   0.016217   0.058519   0.020169
   74  C  5 ZZ    0.006308  -0.002659  -0.016954  -0.061445   0.021282
   75  C  5 XY   -0.001688  -0.013090   0.015433  -0.008072   0.026870
   76  C  5 XZ    0.021213  -0.019168   0.006065  -0.000222   0.013064
   77  C  5 YZ   -0.024734  -0.003292   0.023492  -0.026218  -0.010603
   78  H  6  S   -0.072695  -0.100026   0.150626  -0.154720  -0.170578
   79  H  6  S   -0.018657  -0.003391   0.093881  -0.084220  -0.055186
   80  H  6  X    0.004275   0.005630  -0.007184   0.003673   0.004025
   81  H  6  Y    0.007691   0.008607  -0.013075   0.007938   0.007317
   82  H  6  Z   -0.002617  -0.003438   0.006487   0.001533  -0.004024
   83  H  6  S    0.013873  -0.001214   0.003857  -0.010308  -0.004408
   84  H  6  X    0.017651  -0.009446  -0.021104   0.006145   0.004155
   85  H  6  Y   -0.001758   0.004508  -0.024716  -0.013884  -0.012453
   86  H  6  Z    0.003087   0.001586  -0.008461  -0.014194   0.001756
   87  H  7  S   -0.065602  -0.084160   0.181005   0.167172   0.005334
   88  H  7  S   -0.002799  -0.012071   0.055605   0.106797  -0.062768
   89  H  7  X   -0.000939   0.000236   0.002505  -0.001669  -0.004667
   90  H  7  Y   -0.000069  -0.000748   0.000485  -0.001186  -0.004368
   91  H  7  Z    0.008860   0.010396  -0.017043  -0.007130  -0.000084
   92  H  7  S    0.007268  -0.007342  -0.004320   0.018092  -0.004462
   93  H  7  X    0.006030  -0.006092  -0.001853   0.006652  -0.001914
   94  H  7  Y   -0.002015   0.010490  -0.006003   0.012301   0.009118
   95  H  7  Z   -0.001353   0.003604  -0.006402  -0.002765   0.024140
   96  C  8  S   -0.008929   0.005001   0.005066  -0.000982   0.000783
   97  C  8  S    0.141798  -0.153812  -0.207474   0.028833   0.019264
   98  C  8  S    0.014252   0.014197  -0.054145   0.048078   0.058529
   99  C  8  X   -0.079074  -0.083853   0.067363  -0.098705   0.151616
  100  C  8  Y   -0.040243  -0.084747  -0.055401   0.058608  -0.174599
  101  C  8  Z    0.002792   0.000822   0.092213   0.214465   0.009164
  102  C  8  X   -0.149198  -0.097698   0.015162   0.011463   0.081469
  103  C  8  Y   -0.114716  -0.083758   0.031692   0.032226  -0.068547
  104  C  8  Z   -0.010285   0.003707   0.033355   0.092968   0.022129
  105  C  8 XX   -0.006466  -0.006880   0.008835  -0.001194   0.000600
  106  C  8 YY    0.009633   0.009403  -0.001688   0.008405  -0.002525
  107  C  8 ZZ   -0.003166  -0.002523  -0.007147  -0.007211   0.001925
  108  C  8 XY    0.010593   0.008411   0.006723  -0.007687   0.000903
  109  C  8 XZ   -0.007726  -0.008924   0.007500   0.000187   0.009483
  110  C  8 YZ   -0.003906  -0.006256  -0.002984  -0.000251  -0.008323
  111  C  8  S   -0.026592  -0.080509  -0.020703  -0.041195   0.020921
  112  C  8  X   -0.017144   0.002718   0.010718  -0.019405  -0.000304
  113  C  8  Y   -0.002160   0.013266   0.006677  -0.026797   0.000191
  114  C  8  Z   -0.007113  -0.012563   0.004673  -0.023320   0.003086
  115  C  8 XX   -0.018664  -0.010289  -0.000737  -0.002923  -0.041452
  116  C  8 YY    0.024972   0.012947  -0.016217  -0.058520   0.020169
  117  C  8 ZZ   -0.006307  -0.002659   0.016954   0.061443   0.021284
  118  C  8 XY   -0.001687   0.013089   0.015432  -0.008073  -0.026868
  119  C  8 XZ   -0.021212  -0.019168  -0.006064   0.000222   0.013064
  120  C  8 YZ   -0.024734   0.003292   0.023491  -0.026218   0.010604
  121  H  9  S    0.072695  -0.100026  -0.150626   0.154720  -0.170578
  122  H  9  S    0.018657  -0.003393  -0.093884   0.084219  -0.055190
  123  H  9  X    0.004275  -0.005630  -0.007184   0.003673  -0.004025
  124  H  9  Y   -0.007691   0.008607   0.013076  -0.007938   0.007318
  125  H  9  Z   -0.002617   0.003438   0.006487   0.001533   0.004024
  126  H  9  S   -0.013872  -0.001213  -0.003857   0.010308  -0.004408
  127  H  9  X    0.017650   0.009446  -0.021105   0.006146  -0.004156
  128  H  9  Y    0.001758   0.004508   0.024717   0.013885  -0.012451
  129  H  9  Z    0.003087  -0.001586  -0.008461  -0.014193  -0.001756
  130  H 10  S    0.065603  -0.084160  -0.181005  -0.167172   0.005334
  131  H 10  S    0.002800  -0.012069  -0.055603  -0.106792  -0.062769
  132  H 10  X   -0.000939  -0.000236   0.002505  -0.001669   0.004667
  133  H 10  Y    0.000069  -0.000748  -0.000485   0.001186  -0.004368
  134  H 10  Z    0.008860  -0.010396  -0.017043  -0.007130   0.000084
  135  H 10  S   -0.007269  -0.007342   0.004320  -0.018092  -0.004461
  136  H 10  X    0.006031   0.006092  -0.001852   0.006653   0.001914
  137  H 10  Y    0.002014   0.010490   0.006003  -0.012301   0.009118
  138  H 10  Z   -0.001353  -0.003604  -0.006401  -0.002764  -0.024139
  139  C 11  S   -0.015272  -0.008986  -0.003390   0.001058   0.002218
  140  C 11  S    0.240425   0.213853   0.117513  -0.017642  -0.012922
  141  C 11  S    0.037773   0.008739   0.026167   0.024730   0.026312
  142  C 11  X    0.008123  -0.036643  -0.047398   0.026826   0.206636
  143  C 11  Y    0.026538  -0.054235  -0.097642   0.125624  -0.070624
  144  C 11  Z   -0.010004   0.011657   0.055192   0.136673  -0.014036
  145  C 11  X   -0.003252  -0.029501  -0.006873   0.020936   0.042012
  146  C 11  Y   -0.013271  -0.066893  -0.048761   0.072171   0.003630
  147  C 11  Z   -0.001449   0.035976   0.025433   0.016831  -0.005324
  148  C 11 XX   -0.001377   0.000363   0.002026  -0.006441  -0.002935
  149  C 11 YY    0.004417  -0.003538  -0.007522   0.002953   0.003844
  150  C 11 ZZ   -0.003040   0.003176   0.005496   0.003488  -0.000909
  151  C 11 XY    0.005481  -0.006945  -0.008310   0.008638   0.002826
  152  C 11 XZ   -0.001592   0.002059   0.003708   0.003158  -0.009499
  153  C 11 YZ   -0.003070   0.002563   0.007460  -0.002013   0.003922
  154  C 11  S    0.012351   0.083599   0.035749  -0.020355   0.003632
  155  C 11  X    0.009758   0.015869   0.006967  -0.004804   0.003386
  156  C 11  Y    0.011143   0.016422   0.006472   0.009297  -0.004275
  157  C 11  Z    0.001671  -0.001355  -0.003283   0.019870  -0.006439
  158  C 11 XX   -0.001849   0.007094   0.016330   0.013137  -0.004430
  159  C 11 YY   -0.000426  -0.011119  -0.006419   0.009665  -0.001983
  160  C 11 ZZ    0.002275   0.004025  -0.009911  -0.022802   0.006413
  161  C 11 XY   -0.008976  -0.001811   0.003533  -0.017229  -0.004743
  162  C 11 XZ   -0.002754   0.006080   0.001629  -0.026425   0.016930
  163  C 11 YZ   -0.006163   0.003309   0.004447  -0.013281  -0.023788
  164  H 12  S    0.117778   0.125963   0.076405  -0.061876  -0.176700
  165  H 12  S    0.026313   0.037230   0.027920  -0.015591  -0.092269
  166  H 12  X    0.014992   0.014374   0.008120  -0.004534  -0.009492
  167  H 12  Y   -0.001867  -0.002525  -0.002378   0.003003  -0.000983
  168  H 12  Z    0.005535   0.005741   0.003941   0.001633  -0.005573
  169  H 12  S    0.003231   0.005443   0.005376  -0.004153  -0.001358
  170  H 12  X    0.006873   0.017009   0.013698   0.006024  -0.010055
  171  H 12  Y   -0.008866   0.006278   0.010347  -0.012021   0.000999
  172  H 12  Z    0.004207   0.003154  -0.002748  -0.012970   0.004102
  173  H 13  S    0.108036   0.131933   0.094864  -0.134965   0.115897
  174  H 13  S   -0.006611   0.027470   0.033630  -0.029537   0.083741
  175  H 13  X   -0.005654  -0.006947  -0.005534   0.005223   0.002710
  176  H 13  Y    0.012735   0.012740   0.007474  -0.007084   0.005999
  177  H 13  Z    0.005208   0.005955   0.005553  -0.001043   0.003020
  178  H 13  S    0.009168   0.001288  -0.000868   0.016969  -0.007821
  179  H 13  X   -0.014400  -0.002350  -0.002490  -0.006071  -0.008178
  180  H 13  Y   -0.005387   0.008888   0.010960   0.007687   0.010009
  181  H 13  Z   -0.002331   0.005240  -0.001661  -0.005137   0.003546
  182  H 14  S    0.111021   0.121610   0.112569   0.098664  -0.022155
  183  H 14  S    0.010764  -0.004892   0.045715   0.038296  -0.047992
  184  H 14  X    0.000410  -0.000344  -0.000734   0.001382   0.006384
  185  H 14  Y    0.001930   0.000464  -0.001352   0.003968  -0.001708
  186  H 14  Z   -0.015394  -0.015358  -0.011214  -0.003425   0.002257
  187  H 14  S   -0.000977   0.001353   0.002564  -0.014810   0.007307
  188  H 14  X   -0.002743  -0.000716   0.000924   0.006945  -0.010363
  189  H 14  Y   -0.002873   0.004106   0.002102  -0.004013   0.007418
  190  H 14  Z   -0.004468   0.001351  -0.011950   0.008808   0.017163

                     11         12         13         14         15
                   -0.5731    -0.5328    -0.5316    -0.5037    -0.4606
                     A          A          A          A          A   
    1  C  1  S    0.000192   0.000139   0.000074  -0.000237   0.001005
    2  C  1  S    0.006387  -0.012070   0.017170   0.015273  -0.021934
    3  C  1  S   -0.009495   0.026403   0.060906   0.048185  -0.035899
    4  C  1  X   -0.024348   0.278992  -0.019748  -0.101067   0.118103
    5  C  1  Y   -0.007795   0.094316   0.276284   0.022617  -0.044395
    6  C  1  Z   -0.254331   0.082989  -0.029597   0.251244  -0.134408
    7  C  1  X    0.006082   0.057539  -0.050540  -0.054602   0.066925
    8  C  1  Y   -0.028466  -0.015041   0.095122   0.029821  -0.071481
    9  C  1  Z   -0.080088  -0.006879   0.010905   0.053463  -0.024422
   10  C  1 XX   -0.007047   0.018479   0.005004   0.005731   0.000838
   11  C  1 YY   -0.006487  -0.011160  -0.005486   0.016067  -0.018076
   12  C  1 ZZ    0.013534  -0.007319   0.000481  -0.021798   0.017238
   13  C  1 XY   -0.002048   0.001910  -0.016748  -0.002309   0.002886
   14  C  1 XZ    0.000975   0.013523  -0.000559   0.000169  -0.001088
   15  C  1 YZ   -0.003364   0.002691   0.012359  -0.006727   0.007580
   16  C  1  S    0.003763  -0.036350  -0.074274  -0.009698   0.034448
   17  C  1  X    0.000505  -0.008257   0.007339  -0.016777  -0.009627
   18  C  1  Y   -0.001202  -0.003437  -0.014552  -0.003979  -0.007939
   19  C  1  Z   -0.006728  -0.015352   0.001847   0.000215   0.012367
   20  C  1 XX    0.013366  -0.026134  -0.010872  -0.023549  -0.011371
   21  C  1 YY    0.010542   0.004328   0.016847   0.000816   0.015694
   22  C  1 ZZ   -0.023908   0.021806  -0.005975   0.022732  -0.004323
   23  C  1 XY    0.017225   0.007813   0.008491  -0.010861   0.014945
   24  C  1 XZ    0.005165  -0.033694  -0.009461   0.018281  -0.000119
   25  C  1 YZ   -0.001474  -0.017681  -0.008386  -0.000375  -0.006385
   26  H  2  S   -0.095678   0.276481   0.012757   0.005047   0.044742
   27  H  2  S   -0.066418   0.259073   0.068346   0.056322   0.031203
   28  H  2  X    0.006683  -0.012436  -0.000122  -0.002593   0.000109
   29  H  2  Y    0.000809   0.001607   0.007858   0.000434  -0.001600
   30  H  2  Z   -0.004653  -0.004198  -0.001350   0.007692  -0.005880
   31  H  2  S    0.005461   0.015159  -0.009457   0.013650   0.002729
   32  H  2  X    0.003716  -0.036951  -0.014565  -0.010068  -0.003825
   33  H  2  Y   -0.000810  -0.009833  -0.009132   0.001238  -0.003797
   34  H  2  Z    0.010789  -0.012685  -0.005271  -0.018801  -0.002857
   35  H  3  S   -0.066223  -0.145697  -0.220083   0.119998  -0.082721
   36  H  3  S   -0.075678  -0.169046  -0.220468   0.085069  -0.171116
   37  H  3  X   -0.002970   0.002628  -0.006385  -0.000420   0.001837
   38  H  3  Y   -0.004497  -0.007519  -0.007980   0.008683  -0.005596
   39  H  3  Z   -0.004944   0.007088   0.005533   0.005233  -0.002587
   40  H  3  S   -0.000097   0.006740  -0.012290  -0.004952  -0.018287
   41  H  3  X   -0.001070  -0.003977  -0.014427  -0.001274  -0.016958
   42  H  3  Y   -0.009605  -0.032278  -0.044206   0.005027  -0.035243
   43  H  3  Z    0.016332   0.002359   0.016759  -0.006113   0.015757
   44  H  4  S    0.227672  -0.082698   0.016709  -0.241121   0.140195
   45  H  4  S    0.148604  -0.143395   0.037024  -0.236621   0.157433
   46  H  4  X   -0.001441   0.007612  -0.000225  -0.000845   0.002046
   47  H  4  Y    0.001671   0.002564   0.008579  -0.002274   0.001374
   48  H  4  Z    0.012698  -0.003903  -0.000518  -0.011716   0.005528
   49  H  4  S   -0.006527  -0.011424   0.002556  -0.009417   0.021078
   50  H  4  X    0.003119  -0.008720  -0.000392   0.013668  -0.004016
   51  H  4  Y   -0.000630  -0.013426  -0.009225  -0.009853   0.005359
   52  H  4  Z    0.022814  -0.034001   0.007122  -0.039993   0.031349
   53  C  5  S    0.000125   0.001545  -0.000230  -0.000475  -0.000428
   54  C  5  S   -0.004910  -0.036528   0.020385   0.004814  -0.008858
   55  C  5  S    0.025899  -0.003854   0.052490   0.025811  -0.042485
   56  C  5  X   -0.094798   0.007801   0.091452   0.078539  -0.130157
   57  C  5  Y    0.072621   0.062291  -0.218005  -0.077773  -0.006143
   58  C  5  Z   -0.158659  -0.007788  -0.029603  -0.162689   0.233759
   59  C  5  X   -0.045328   0.041836   0.069363   0.052497  -0.035436
   60  C  5  Y    0.026678   0.065420  -0.088706  -0.067192   0.024817
   61  C  5  Z   -0.087358   0.028291  -0.044222  -0.027011   0.005161
   62  C  5 XX    0.009030   0.010918   0.004575  -0.000660  -0.009380
   63  C  5 YY   -0.000551  -0.007775  -0.002128   0.012911  -0.021908
   64  C  5 ZZ   -0.008479  -0.003143  -0.002447  -0.012252   0.031288
   65  C  5 XY    0.003917   0.002067  -0.006566  -0.008771   0.000036
   66  C  5 XZ   -0.003013   0.002367  -0.007259   0.009019   0.008819
   67  C  5 YZ    0.002931  -0.006256   0.011980  -0.005118   0.004428
   68  C  5  S    0.005536   0.131058   0.078162   0.059900  -0.038242
   69  C  5  X   -0.010906  -0.015432   0.027351   0.001851   0.010708
   70  C  5  Y   -0.000335  -0.032309  -0.028148  -0.016502   0.024311
   71  C  5  Z   -0.005415  -0.004445  -0.024917  -0.013653  -0.018747
   72  C  5 XX   -0.013640   0.011968   0.002430  -0.020298   0.000236
   73  C  5 YY   -0.003850  -0.025367   0.004292   0.016610   0.024024
   74  C  5 ZZ    0.017490   0.013399  -0.006722   0.003689  -0.024261
   75  C  5 XY   -0.008852  -0.035481   0.009479   0.000489   0.017352
   76  C  5 XZ   -0.002914   0.000916  -0.007516   0.002563   0.008962
   77  C  5 YZ    0.009505  -0.011285  -0.003052  -0.013361  -0.006176
   78  H  6  S    0.055016   0.027713  -0.111085   0.024478  -0.150055
   79  H  6  S    0.013086   0.030192  -0.132261   0.017774  -0.231156
   80  H  6  X   -0.004071  -0.000719   0.005321   0.002348   0.001321
   81  H  6  Y   -0.001547   0.000643   0.002803  -0.004555   0.008425
   82  H  6  Z   -0.003022   0.000590  -0.003644  -0.004700   0.005127
   83  H  6  S   -0.000575   0.014319   0.006404  -0.004845  -0.027560
   84  H  6  X    0.007099  -0.008550  -0.001035   0.005837   0.020660
   85  H  6  Y    0.006240   0.001797   0.034203  -0.007420   0.040684
   86  H  6  Z    0.007036   0.012834  -0.005904   0.005866  -0.017144
   87  H  7  S   -0.134706  -0.030436  -0.025092  -0.158088   0.252331
   88  H  7  S   -0.053415  -0.105317   0.043656  -0.149345   0.359224
   89  H  7  X   -0.001799  -0.001220   0.002500   0.000273  -0.003792
   90  H  7  Y    0.001795   0.001603  -0.006012   0.000063  -0.001889
   91  H  7  Z    0.007666   0.002739   0.001919   0.009055  -0.011421
   92  H  7  S    0.000613  -0.000461   0.009091   0.004700   0.025916
   93  H  7  X    0.012568  -0.007753  -0.002622  -0.009502  -0.004565
   94  H  7  Y   -0.012815   0.005649   0.002541   0.017223  -0.004045
   95  H  7  Z   -0.001844   0.028247  -0.018292   0.028463  -0.076692
   96  C  8  S    0.000125  -0.001545  -0.000230   0.000475  -0.000428
   97  C  8  S   -0.004909   0.036528   0.020384  -0.004815  -0.008858
   98  C  8  S    0.025909   0.003857   0.052493  -0.025816  -0.042485
   99  C  8  X    0.094797   0.007799  -0.091452   0.078541   0.130158
  100  C  8  Y    0.072622  -0.062295  -0.218003   0.077775  -0.006146
  101  C  8  Z    0.158660  -0.007788   0.029602  -0.162688  -0.233760
  102  C  8  X    0.045340   0.041831  -0.069359   0.052498   0.035437
  103  C  8  Y    0.026684  -0.065422  -0.088703   0.067195   0.024820
  104  C  8  Z    0.087362   0.028298   0.044222  -0.027013  -0.005163
  105  C  8 XX    0.009031  -0.010918   0.004575   0.000660  -0.009380
  106  C  8 YY   -0.000551   0.007775  -0.002128  -0.012911  -0.021909
  107  C  8 ZZ   -0.008479   0.003143  -0.002447   0.012252   0.031288
  108  C  8 XY   -0.003917   0.002067   0.006566  -0.008771  -0.000035
  109  C  8 XZ   -0.003013  -0.002367  -0.007259  -0.009019   0.008819
  110  C  8 YZ   -0.002932  -0.006257  -0.011980  -0.005117  -0.004428
  111  C  8  S    0.005519  -0.131058   0.078161  -0.059904  -0.038229
  112  C  8  X    0.010904  -0.015432  -0.027350   0.001851  -0.010702
  113  C  8  Y   -0.000336   0.032308  -0.028147   0.016502   0.024312
  114  C  8  Z    0.005412  -0.004445   0.024917  -0.013654   0.018750
  115  C  8 XX   -0.013635  -0.011971   0.002433   0.020301   0.000238
  116  C  8 YY   -0.003854   0.025367   0.004291  -0.016611   0.024023
  117  C  8 ZZ    0.017490  -0.013397  -0.006724  -0.003690  -0.024261
  118  C  8 XY    0.008856  -0.035480  -0.009478   0.000489  -0.017351
  119  C  8 XZ   -0.002910  -0.000913  -0.007514  -0.002561   0.008964
  120  C  8 YZ   -0.009505  -0.011284   0.003052  -0.013363   0.006177
  121  H  9  S    0.055017  -0.027716  -0.111085  -0.024476  -0.150058
  122  H  9  S    0.013092  -0.030202  -0.132259  -0.017770  -0.231158
  123  H  9  X    0.004071  -0.000719  -0.005321   0.002348  -0.001321
  124  H  9  Y   -0.001547  -0.000643   0.002803   0.004555   0.008425
  125  H  9  Z    0.003022   0.000590   0.003644  -0.004700  -0.005127
  126  H  9  S   -0.000575  -0.014318   0.006405   0.004846  -0.027559
  127  H  9  X   -0.007099  -0.008551   0.001036   0.005838  -0.020660
  128  H  9  Y    0.006239  -0.001793   0.034202   0.007420   0.040684
  129  H  9  Z   -0.007037   0.012834   0.005903   0.005867   0.017144
  130  H 10  S   -0.134706   0.030436  -0.025091   0.158086   0.252332
  131  H 10  S   -0.053412   0.105326   0.043656   0.149344   0.359224
  132  H 10  X    0.001799  -0.001220  -0.002500   0.000273   0.003792
  133  H 10  Y    0.001794  -0.001603  -0.006012  -0.000063  -0.001889
  134  H 10  Z   -0.007666   0.002739  -0.001919   0.009055   0.011421
  135  H 10  S    0.000612   0.000460   0.009092  -0.004701   0.025918
  136  H 10  X   -0.012567  -0.007752   0.002623  -0.009501   0.004565
  137  H 10  Y   -0.012815  -0.005649   0.002541  -0.017223  -0.004045
  138  H 10  Z    0.001845   0.028252   0.018291   0.028463   0.076691
  139  C 11  S    0.000192  -0.000139   0.000074   0.000236   0.001005
  140  C 11  S    0.006387   0.012071   0.017170  -0.015273  -0.021934
  141  C 11  S   -0.009489  -0.026404   0.060910  -0.048185  -0.035895
  142  C 11  X    0.024346   0.278991   0.019742  -0.101068  -0.118106
  143  C 11  Y   -0.007794  -0.094310   0.276286  -0.022619  -0.044391
  144  C 11  Z    0.254331   0.082993   0.029597   0.251242   0.134409
  145  C 11  X   -0.006078   0.057538   0.050540  -0.054601  -0.066924
  146  C 11  Y   -0.028466   0.015041   0.095122  -0.029820  -0.071478
  147  C 11  Z    0.080087  -0.006880  -0.010904   0.053462   0.024421
  148  C 11 XX   -0.007047  -0.018480   0.005006  -0.005730   0.000839
  149  C 11 YY   -0.006488   0.011159  -0.005486  -0.016067  -0.018076
  150  C 11 ZZ    0.013534   0.007321   0.000480   0.021797   0.017238
  151  C 11 XY    0.002048   0.001912   0.016748  -0.002309  -0.002886
  152  C 11 XZ    0.000977  -0.013522  -0.000558  -0.000168  -0.001088
  153  C 11 YZ    0.003363   0.002690  -0.012360  -0.006728  -0.007581
  154  C 11  S    0.003765   0.036352  -0.074274   0.009700   0.034450
  155  C 11  X   -0.000504  -0.008258  -0.007339  -0.016776   0.009627
  156  C 11  Y   -0.001202   0.003438  -0.014551   0.003980  -0.007938
  157  C 11  Z    0.006729  -0.015352  -0.001847   0.000216  -0.012369
  158  C 11 XX    0.013365   0.026136  -0.010875   0.023547  -0.011372
  159  C 11 YY    0.010543  -0.004326   0.016847  -0.000816   0.015694
  160  C 11 ZZ   -0.023909  -0.021810  -0.005972  -0.022731  -0.004322
  161  C 11 XY   -0.017226   0.007809  -0.008489  -0.010860  -0.014944
  162  C 11 XZ    0.005160   0.033692  -0.009462  -0.018285  -0.000122
  163  C 11 YZ    0.001476  -0.017680   0.008388  -0.000372   0.006389
  164  H 12  S   -0.095668  -0.276483   0.012770  -0.005035   0.044751
  165  H 12  S   -0.066407  -0.259073   0.068361  -0.056311   0.031214
  166  H 12  X   -0.006683  -0.012436   0.000123  -0.002592  -0.000109
  167  H 12  Y    0.000809  -0.001607   0.007858  -0.000434  -0.001600
  168  H 12  Z    0.004653  -0.004197   0.001351   0.007693   0.005880
  169  H 12  S    0.005462  -0.015160  -0.009458  -0.013650   0.002729
  170  H 12  X   -0.003715  -0.036951   0.014567  -0.010067   0.003826
  171  H 12  Y   -0.000810   0.009833  -0.009132  -0.001237  -0.003797
  172  H 12  Z   -0.010788  -0.012683   0.005271  -0.018801   0.002857
  173  H 13  S   -0.066234   0.145680  -0.220088  -0.120004  -0.082728
  174  H 13  S   -0.075691   0.169023  -0.220472  -0.085075  -0.171125
  175  H 13  X    0.002971   0.002628   0.006385  -0.000420  -0.001837
  176  H 13  Y   -0.004498   0.007518  -0.007981  -0.008684  -0.005596
  177  H 13  Z    0.004943   0.007088  -0.005533   0.005232   0.002587
  178  H 13  S   -0.000096  -0.006740  -0.012289   0.004953  -0.018286
  179  H 13  X    0.001069  -0.003975   0.014426  -0.001274   0.016957
  180  H 13  Y   -0.009607   0.032273  -0.044207  -0.005027  -0.035244
  181  H 13  Z   -0.016333   0.002359  -0.016760  -0.006113  -0.015758
  182  H 14  S    0.227673   0.082713   0.016702   0.241116   0.140192
  183  H 14  S    0.148605   0.143412   0.037013   0.236620   0.157428
  184  H 14  X    0.001440   0.007612   0.000225  -0.000845  -0.002046
  185  H 14  Y    0.001672  -0.002564   0.008579   0.002274   0.001375
  186  H 14  Z   -0.012699  -0.003904   0.000519  -0.011716  -0.005528
  187  H 14  S   -0.006528   0.011425   0.002557   0.009417   0.021079
  188  H 14  X   -0.003119  -0.008720   0.000392   0.013667   0.004016
  189  H 14  Y   -0.000630   0.013427  -0.009226   0.009854   0.005358
  190  H 14  Z   -0.022815  -0.034004  -0.007120  -0.039994  -0.031348

                     16         17         18         19         20
                   -0.4587    -0.4558     0.0383     0.0462     0.0481
                     A          A          A          A          A   
    1  C  1  S   -0.001702  -0.000448  -0.013671  -0.000135  -0.000909
    2  C  1  S    0.033602   0.005096   0.012252  -0.022488   0.022232
    3  C  1  S    0.093600   0.002942   0.614334  -0.011971   0.150431
    4  C  1  X   -0.058490  -0.169719   0.018633  -0.031366  -0.005107
    5  C  1  Y    0.245000   0.006395  -0.021896   0.008996  -0.019921
    6  C  1  Z   -0.008851  -0.083528  -0.009647  -0.004528   0.003263
    7  C  1  X   -0.107670  -0.034381   0.187006  -0.529840   0.089372
    8  C  1  Y    0.157137   0.032817  -0.115093   0.240506  -0.449552
    9  C  1  Z    0.032211  -0.002062  -0.093851  -0.010758  -0.141431
   10  C  1 XX    0.006495  -0.021959  -0.001985  -0.003209   0.000626
   11  C  1 YY   -0.008074   0.011737  -0.000128   0.002768  -0.002250
   12  C  1 ZZ    0.001580   0.010222   0.002113   0.000441   0.001623
   13  C  1 XY   -0.015860   0.001837   0.001534  -0.002759   0.005296
   14  C  1 XZ   -0.003373  -0.010246   0.000084  -0.003530   0.000261
   15  C  1 YZ    0.010854   0.005980   0.000458   0.000683  -0.003467
   16  C  1  S   -0.070938   0.045182   3.175820  -0.787977  -0.478435
   17  C  1  X    0.004338  -0.006155  -0.018369  -1.558902   0.365982
   18  C  1  Y   -0.003904   0.017054   0.270261   0.307830  -1.105327
   19  C  1  Z    0.009922   0.007684  -0.015685  -0.427171  -0.241862
   20  C  1 XX    0.014048   0.015348   0.013021  -0.056975   0.013217
   21  C  1 YY    0.003474  -0.001515  -0.042079   0.075691  -0.072396
   22  C  1 ZZ   -0.017522  -0.013833   0.029058  -0.018716   0.059178
   23  C  1 XY   -0.017482   0.005037   0.041849  -0.086884   0.061408
   24  C  1 XZ   -0.013495   0.013942   0.017267  -0.056619   0.028701
   25  C  1 YZ   -0.007644   0.009404  -0.014476   0.023483  -0.067581
   26  H  2  S   -0.006161  -0.194382   0.000157  -0.009961   0.007210
   27  H  2  S    0.035019  -0.237824  -0.632164   0.911763  -0.121632
   28  H  2  X   -0.000348   0.008605  -0.000199  -0.000175  -0.002434
   29  H  2  Y    0.007948  -0.000029   0.000681  -0.001255   0.001304
   30  H  2  Z    0.000250   0.001557   0.000339  -0.000214  -0.000449
   31  H  2  S    0.009087  -0.018821  -0.915026   3.215707  -0.408461
   32  H  2  X   -0.008232   0.043863   0.118468  -0.164161   0.029272
   33  H  2  Y    0.002171  -0.001075  -0.014360  -0.014891   0.056234
   34  H  2  Z    0.003023   0.012036   0.034642  -0.067113   0.010879
   35  H  3  S   -0.170375   0.040839   0.009113  -0.001819   0.003702
   36  H  3  S   -0.128334   0.074352  -0.373768  -0.033123  -0.568049
   37  H  3  X   -0.004864  -0.005095   0.000106  -0.000707  -0.002109
   38  H  3  Y   -0.005382   0.002055  -0.000063  -0.002059   0.001768
   39  H  3  Z    0.003427  -0.003226   0.000333   0.000725   0.001393
   40  H  3  S   -0.022280   0.010309  -0.085945   0.240605  -1.659636
   41  H  3  X   -0.001156   0.010499   0.010778   0.025065  -0.005910
   42  H  3  Y   -0.020687   0.013004  -0.059321  -0.032600  -0.105466
   43  H  3  Z    0.001482  -0.001557  -0.003488   0.025765   0.009384
   44  H  4  S    0.013373   0.089626   0.011539  -0.000429  -0.001040
   45  H  4  S    0.087099   0.124343  -0.610937   0.032398  -0.444916
   46  H  4  X   -0.001274  -0.006053   0.000039   0.000288  -0.001705
   47  H  4  Y    0.006982   0.000828   0.000039  -0.000685   0.000647
   48  H  4  Z   -0.000094   0.003031  -0.000324  -0.003267   0.000336
   49  H  4  S    0.012040   0.017162  -0.439587  -0.361184  -1.056136
   50  H  4  X   -0.003383   0.004758   0.017415   0.036295   0.054616
   51  H  4  Y   -0.002831   0.003891  -0.034149  -0.010106   0.015890
   52  H  4  Z    0.021664   0.023732  -0.129243   0.021717  -0.088239
   53  C  5  S    0.000223   0.001505  -0.009999   0.002216  -0.001246
   54  C  5  S    0.009971  -0.033854   0.001746  -0.006233  -0.022667
   55  C  5  S    0.040632  -0.097374   0.414353  -0.038332   0.027881
   56  C  5  X    0.008308   0.301082   0.011347   0.002318  -0.025789
   57  C  5  Y   -0.268576   0.029077   0.032972  -0.025279  -0.012312
   58  C  5  Z    0.023620   0.144067   0.026078  -0.010094   0.002897
   59  C  5  X    0.008525   0.172605   0.117686  -0.524852   0.112164
   60  C  5  Y   -0.014130   0.008525   0.087891   0.318482  -0.424652
   61  C  5  Z   -0.008294   0.043252   0.060622  -0.029269   0.009195
   62  C  5 XX    0.004802  -0.025690  -0.001759   0.002663  -0.002125
   63  C  5 YY   -0.006934   0.013874   0.000818  -0.003846   0.003035
   64  C  5 ZZ    0.002132   0.011816   0.000941   0.001183  -0.000910
   65  C  5 XY   -0.030003   0.001386  -0.001972   0.000664  -0.005471
   66  C  5 XZ   -0.002148  -0.014867  -0.000198   0.004959   0.001180
   67  C  5 YZ    0.009661   0.001619  -0.000513  -0.000360   0.004555
   68  C  5  S    0.249554  -0.048052   0.299176   3.094072   0.650998
   69  C  5  X   -0.040925   0.009870  -0.038302  -2.068669   0.186260
   70  C  5  Y   -0.017829   0.018020   0.586426  -0.406449  -1.511130
   71  C  5  Z   -0.042379   0.022246   0.326594  -0.495934  -0.399370
   72  C  5 XX    0.013238  -0.018491  -0.016371   0.070136   0.072284
   73  C  5 YY   -0.005220   0.012428  -0.003461  -0.103870  -0.027873
   74  C  5 ZZ   -0.008018   0.006063   0.019832   0.033734  -0.044411
   75  C  5 XY   -0.000663  -0.007268   0.010784   0.036206  -0.092549
   76  C  5 XZ   -0.002612   0.009956   0.001516   0.080453  -0.076939
   77  C  5 YZ   -0.032133   0.013945  -0.015550  -0.071549  -0.013034
   78  H  6  S   -0.234499   0.099659   0.001838  -0.010767  -0.005121
   79  H  6  S   -0.295124   0.071843  -0.432483  -0.038443   0.538540
   80  H  6  X    0.008751   0.005042  -0.000609   0.003299  -0.001731
   81  H  6  Y    0.007352  -0.006118  -0.000205  -0.000406   0.001710
   82  H  6  Z   -0.003401   0.006773   0.000866  -0.000527   0.001043
   83  H  6  S   -0.014009  -0.002042  -0.987801   1.348717   2.478722
   84  H  6  X    0.027763  -0.000334   0.017657   0.063371  -0.109933
   85  H  6  Y    0.048524  -0.011735   0.080324   0.003310  -0.046355
   86  H  6  Z   -0.005930  -0.003126  -0.003964   0.029516   0.076639
   87  H  7  S    0.021161   0.114059   0.015198  -0.001756  -0.000550
   88  H  7  S    0.041364   0.107516  -0.403191  -0.065376   0.024956
   89  H  7  X    0.000238   0.007990   0.000672   0.002110  -0.000611
   90  H  7  Y   -0.008497   0.000074   0.000666  -0.001512   0.000821
   91  H  7  Z    0.000320  -0.004785  -0.001546   0.002514   0.002168
   92  H  7  S    0.025708  -0.007184  -0.379653   0.566382   0.609665
   93  H  7  X    0.005162  -0.008815  -0.020713   0.025048   0.033510
   94  H  7  Y    0.007372  -0.011052   0.028475   0.005685   0.110956
[...]
    2             0.045141   0.426783  -0.002028  -0.008437   0.012440
    3             0.022811   0.107615   0.291184   0.063692   0.030713
    4             0.269270   0.031900  -0.004281   0.307041   0.113987
    5             0.236811   0.057579   0.274245   0.188082   0.231254
    6             0.010234   0.006634   0.067785   0.002179   0.107617
    7             0.075749   0.000916  -0.005207   0.116830   0.354774
    8             0.236816   0.057582   0.274240   0.188084   0.231260
    9             0.010235   0.006636   0.067784   0.002178   0.107621
   10             0.075748   0.000916  -0.005207   0.116828   0.354777
   11             0.339982   0.368570   0.378303   0.330614   0.149206
   12             0.045129   0.426790  -0.002026  -0.008439   0.012444
   13             0.022820   0.107589   0.291193   0.063700   0.030719
   14             0.269272   0.031915  -0.004283   0.307031   0.113982

                     16         17

                  2.000000   2.000000

    1             0.333217   0.149976
    2            -0.001864   0.186686
    3             0.134479   0.012433
    4            -0.006362   0.046308
    5             0.256475   0.484944
    6             0.285412   0.051543
    7            -0.001355   0.068113
    8             0.256469   0.484945
    9             0.285420   0.051532
   10            -0.001358   0.068115
   11             0.333213   0.149981
   12            -0.001866   0.186683
   13             0.134483   0.012424
   14            -0.006364   0.046317

               ----- POPULATIONS IN EACH AO -----
                             MULLIKEN      LOWDIN
              1  C  1  S      2.00788     1.81591
              2  C  1  S      0.65197     0.42007
              3  C  1  S      0.07047     0.18209
              4  C  1  X      0.68215     0.58236
              5  C  1  Y      0.68069     0.58256
              6  C  1  Z      0.68117     0.57851
              7  C  1  X      0.16730     0.29639
              8  C  1  Y      0.29920     0.28980
              9  C  1  Z      0.16434     0.31453
             10  C  1 XX      0.01937     0.11793
             11  C  1 YY      0.01770     0.11912
             12  C  1 ZZ      0.01319     0.11851
             13  C  1 XY      0.00701     0.02445
             14  C  1 XZ      0.00899     0.01406
             15  C  1 YZ      0.00000     0.01744
             16  C  1  S      0.14220     0.04945
             17  C  1  X      0.00438     0.03862
             18  C  1  Y      0.00061     0.03130
             19  C  1  Z      0.01058     0.02902
             20  C  1 XX     -0.02526     0.07450
             21  C  1 YY     -0.01385     0.09189
             22  C  1 ZZ     -0.00706     0.06399
             23  C  1 XY     -0.01685     0.05670
             24  C  1 XZ     -0.00409     0.03830
             25  C  1 YZ      0.00000     0.06102
             26  H  2  S      0.77641     0.54195
             27  H  2  S      0.35575     0.15804
             28  H  2  X      0.01813     0.03236
             29  H  2  Y      0.00489     0.01327
             30  H  2  Z      0.00688     0.01568
             31  H  2  S      0.00988     0.02009
             32  H  2  X     -0.01894     0.07897
             33  H  2  Y     -0.01940     0.05540
             34  H  2  Z     -0.02077     0.06251
             35  H  3  S      0.77733     0.53896
             36  H  3  S      0.34158     0.15399
             37  H  3  X      0.00692     0.01604
             38  H  3  Y      0.01566     0.02931
             39  H  3  Z      0.00723     0.01593
             40  H  3  S      0.01543     0.02150
             41  H  3  X     -0.00742     0.06896
             42  H  3  Y     -0.02670     0.07065
             43  H  3  Z     -0.01351     0.06397
             44  H  4  S      0.77547     0.54302
             45  H  4  S      0.33733     0.15594
             46  H  4  X      0.00494     0.01343
             47  H  4  Y      0.00499     0.01329
             48  H  4  Z      0.01985     0.03520
             49  H  4  S      0.00524     0.02077
             50  H  4  X     -0.01352     0.05678
             51  H  4  Y     -0.01761     0.05370
             52  H  4  Z     -0.02399     0.08899
             53  C  5  S      2.00856     1.81529
             54  C  5  S      0.64927     0.41642
             55  C  5  S      0.15371     0.17140
             56  C  5  X      0.67484     0.58035
             57  C  5  Y      0.67475     0.57333
             58  C  5  Z      0.67949     0.57697
             59  C  5  X      0.42156     0.25031
             60  C  5  Y      0.29106     0.27441
             61  C  5  Z      0.24348     0.29671
             62  C  5 XX      0.02491     0.11791
             63  C  5 YY      0.01869     0.11639
             64  C  5 ZZ      0.02240     0.12133
             65  C  5 XY      0.01221     0.04196
             66  C  5 XZ      0.00783     0.02143
             67  C  5 YZ      0.00000     0.01433
             68  C  5  S     -0.14724     0.04873
             69  C  5  X      0.03637     0.04419
             70  C  5  Y     -0.02184     0.03729
             71  C  5  Z     -0.02085     0.03177
             72  C  5 XX     -0.00409     0.10896
             73  C  5 YY      0.04997     0.09196
             74  C  5 ZZ      0.02469     0.09306
             75  C  5 XY      0.02405     0.15206
             76  C  5 XZ      0.01491     0.09118
             77  C  5 YZ      0.00000     0.06390
             78  H  6  S      0.78721     0.53898
             79  H  6  S      0.38962     0.14857
             80  H  6  X      0.00717     0.01694
             81  H  6  Y      0.01460     0.02816
             82  H  6  Z      0.00624     0.01454
             83  H  6  S     -0.00491     0.02073
             84  H  6  X     -0.02767     0.05065
             85  H  6  Y     -0.02778     0.06963
             86  H  6  Z     -0.02257     0.05732
             87  H  7  S      0.78580     0.54347
             88  H  7  S      0.41357     0.14800
             89  H  7  X      0.00402     0.01290
             90  H  7  Y      0.00447     0.01285
             91  H  7  Z      0.01931     0.03464
             92  H  7  S     -0.00553     0.02137
             93  H  7  X     -0.01740     0.04632
             94  H  7  Y     -0.02620     0.05130
             95  H  7  Z     -0.02283     0.08477
             96  C  8  S      2.00856     1.81529
             97  C  8  S      0.64927     0.41642
             98  C  8  S      0.15371     0.17140
             99  C  8  X      0.67484     0.58035
            100  C  8  Y      0.67475     0.57333
            101  C  8  Z      0.67949     0.57697
            102  C  8  X      0.42156     0.25031
            103  C  8  Y      0.29106     0.27441
            104  C  8  Z      0.24348     0.29671
            105  C  8 XX      0.02491     0.11791
            106  C  8 YY      0.01869     0.11639
            107  C  8 ZZ      0.02240     0.12133
            108  C  8 XY      0.01221     0.04196
            109  C  8 XZ      0.00783     0.02143
            110  C  8 YZ      0.00000     0.01433
            111  C  8  S     -0.14724     0.04873
            112  C  8  X      0.03637     0.04419
            113  C  8  Y     -0.02184     0.03729
            114  C  8  Z     -0.02085     0.03177
            115  C  8 XX     -0.00409     0.10896
            116  C  8 YY      0.04998     0.09196
            117  C  8 ZZ      0.02468     0.09306
            118  C  8 XY      0.02405     0.15206
            119  C  8 XZ      0.01491     0.09118
            120  C  8 YZ      0.00000     0.06390
            121  H  9  S      0.78721     0.53898
            122  H  9  S      0.38963     0.14857
            123  H  9  X      0.00717     0.01694
            124  H  9  Y      0.01460     0.02816
            125  H  9  Z      0.00624     0.01454
            126  H  9  S     -0.00491     0.02073
            127  H  9  X     -0.02767     0.05065
            128  H  9  Y     -0.02778     0.06963
            129  H  9  Z     -0.02257     0.05732
            130  H 10  S      0.78580     0.54347
            131  H 10  S      0.41356     0.14800
            132  H 10  X      0.00403     0.01290
            133  H 10  Y      0.00447     0.01285
            134  H 10  Z      0.01931     0.03464
            135  H 10  S     -0.00553     0.02137
            136  H 10  X     -0.01740     0.04632
            137  H 10  Y     -0.02620     0.05130
            138  H 10  Z     -0.02284     0.08477
            139  C 11  S      2.00788     1.81591
            140  C 11  S      0.65197     0.42007
            141  C 11  S      0.07048     0.18209
            142  C 11  X      0.68215     0.58236
            143  C 11  Y      0.68069     0.58256
            144  C 11  Z      0.68116     0.57851
            145  C 11  X      0.16730     0.29639
            146  C 11  Y      0.29920     0.28980
            147  C 11  Z      0.16434     0.31453
            148  C 11 XX      0.01937     0.11793
            149  C 11 YY      0.01770     0.11912
            150  C 11 ZZ      0.01319     0.11850
            151  C 11 XY      0.00701     0.02445
            152  C 11 XZ      0.00899     0.01405
            153  C 11 YZ      0.00000     0.01744
            154  C 11  S      0.14219     0.04945
            155  C 11  X      0.00438     0.03862
            156  C 11  Y      0.00061     0.03130
            157  C 11  Z      0.01058     0.02902
            158  C 11 XX     -0.02526     0.07450
            159  C 11 YY     -0.01385     0.09189
            160  C 11 ZZ     -0.00706     0.06399
            161  C 11 XY     -0.01685     0.05670
            162  C 11 XZ     -0.00409     0.03830
            163  C 11 YZ      0.00000     0.06102
            164  H 12  S      0.77641     0.54195
            165  H 12  S      0.35576     0.15804
            166  H 12  X      0.01813     0.03236
            167  H 12  Y      0.00489     0.01327
            168  H 12  Z      0.00688     0.01568
            169  H 12  S      0.00988     0.02009
            170  H 12  X     -0.01894     0.07897
            171  H 12  Y     -0.01940     0.05540
            172  H 12  Z     -0.02077     0.06251
            173  H 13  S      0.77733     0.53896
            174  H 13  S      0.34158     0.15399
            175  H 13  X      0.00692     0.01604
            176  H 13  Y      0.01566     0.02930
            177  H 13  Z      0.00723     0.01593
            178  H 13  S      0.01542     0.02150
            179  H 13  X     -0.00742     0.06896
            180  H 13  Y     -0.02670     0.07065
            181  H 13  Z     -0.01351     0.06397
            182  H 14  S      0.77547     0.54302
            183  H 14  S      0.33733     0.15594
            184  H 14  X      0.00494     0.01343
            185  H 14  Y      0.00499     0.01329
            186  H 14  Z      0.01985     0.03520
            187  H 14  S      0.00524     0.02077
            188  H 14  X     -0.01352     0.05678
            189  H 14  Y     -0.01761     0.05370
            190  H 14  Z     -0.02399     0.08899

          ----- MULLIKEN ATOMIC OVERLAP POPULATIONS -----
          (OFF-DIAGONAL ELEMENTS NEED TO BE MULTIPLIED BY 2)

             1           2           3           4           5

    1    4.1490723
    2    0.3190897   1.1777340
    3    0.3871665  -0.1994769   1.1602103
    4    0.3457648  -0.1985784  -0.1341741   1.1701854
    5    0.5134394   0.1104383  -0.1196514  -0.0741498   4.6892460
    6   -0.0622878  -0.0477402   0.0759267  -0.0801075   0.1313897
    7   -0.0430725  -0.0441682  -0.0854311   0.0876677   0.2129267
    8   -0.0800990  -0.0058283   0.0235636  -0.0414460   0.4307020
    9    0.0343087  -0.0009613   0.0076068   0.0003968   0.1203120
   10   -0.0081653   0.0056503  -0.0269022   0.0248892  -0.0720968
   11    0.0002199  -0.0050739   0.0067230   0.0049966  -0.0800990
   12   -0.0050749  -0.0004328   0.0001920   0.0019851  -0.0058293
   13    0.0067239   0.0001918   0.0331239  -0.0123498   0.0235661
   14    0.0049965   0.0019853  -0.0123514  -0.0023926  -0.0414483

             6           7           8           9          10

    6    1.3149094
    7   -0.2633061   1.3543758
    8    0.1203069  -0.0720884   4.6892422
    9   -0.0439013  -0.0646176   0.1313850   1.3149168
   10   -0.0646196   0.0774482   0.2129344  -0.2633063   1.3543729
   11    0.0343059  -0.0081625   0.5134371  -0.0622911  -0.0430694
   12   -0.0009612   0.0056504   0.1104396  -0.0477467  -0.0441624
   13    0.0076062  -0.0268997  -0.1196368   0.0759268  -0.0854383
   14    0.0003964   0.0248886  -0.0741676  -0.0801013   0.0876684

            11          12          13          14

   11    4.1490727
   12    0.3190907   1.1777451
   13    0.3871582  -0.1994794   1.1602044
   14    0.3457728  -0.1985819  -0.1341754   1.1701996

          TOTAL MULLIKEN AND LOWDIN ATOMIC POPULATIONS
       ATOM         MULL.POP.    CHARGE          LOW.POP.     CHARGE
    1 C             5.562082    0.437918         6.008504   -0.008504
    2 H             1.112829   -0.112829         0.978268    0.021732
    3 H             1.116526   -0.116526         0.979320    0.020680
    4 H             1.092687   -0.092687         0.981113    0.018887
    5 C             5.838746    0.161254         6.151661   -0.151661
    6 H             1.121917   -0.121917         0.945509    0.054491
    7 H             1.155211   -0.155211         0.955625    0.044375
    8 C             5.838745    0.161255         6.151660   -0.151660
    9 H             1.121927   -0.121927         0.945509    0.054491
   10 H             1.155203   -0.155203         0.955625    0.044375
   11 C             5.562081    0.437919         6.008504   -0.008504
   12 H             1.112834   -0.112834         0.978269    0.021731
   13 H             1.116522   -0.116522         0.979320    0.020680
   14 H             1.092689   -0.092689         0.981113    0.018887

          MULLIKEN SPHERICAL HARMONIC POPULATIONS
       ATOM           S       P       D      F      G      H      I    TOTAL
    1 C             2.87    2.69   -0.00   0.00   0.00   0.00   0.00    5.56
    2 H             1.14   -0.03    0.00   0.00   0.00   0.00   0.00    1.11
    3 H             1.13   -0.02    0.00   0.00   0.00   0.00   0.00    1.12
    4 H             1.12   -0.03    0.00   0.00   0.00   0.00   0.00    1.09
    5 C             2.66    2.98    0.20   0.00   0.00   0.00   0.00    5.84
    6 H             1.17   -0.05    0.00   0.00   0.00   0.00   0.00    1.12
    7 H             1.19   -0.04    0.00   0.00   0.00   0.00   0.00    1.16
    8 C             2.66    2.98    0.20   0.00   0.00   0.00   0.00    5.84
    9 H             1.17   -0.05    0.00   0.00   0.00   0.00   0.00    1.12
   10 H             1.19   -0.04    0.00   0.00   0.00   0.00   0.00    1.16
   11 C             2.87    2.69   -0.00   0.00   0.00   0.00   0.00    5.56
   12 H             1.14   -0.03    0.00   0.00   0.00   0.00   0.00    1.11
   13 H             1.13   -0.02    0.00   0.00   0.00   0.00   0.00    1.12
   14 H             1.12   -0.03    0.00   0.00   0.00   0.00   0.00    1.09

          -------------------------------
          BOND ORDER AND VALENCE ANALYSIS     BOND ORDER THRESHOLD=0.050
          -------------------------------

                   BOND                       BOND                       BOND
  ATOM PAIR DIST  ORDER      ATOM PAIR DIST  ORDER      ATOM PAIR DIST  ORDER
    1   2  1.086  0.892        1   3  1.085  0.953        1   4  1.087  0.932
    1   5  1.530  1.211        1   8  2.577 -0.057        2   3  1.750 -0.072
    2   4  1.754 -0.083        2   5  2.167  0.079        3   4  1.754 -0.064
    5   6  1.087  0.776        5   7  1.088  0.821        5   8  1.533  1.332
    5   9  2.143  0.102        5  11  2.577 -0.057        6   7  1.740 -0.105
    6   8  2.143  0.102        8   9  1.087  0.776        8  10  1.088  0.821
    8  11  1.530  1.211        8  12  2.167  0.079        9  10  1.740 -0.105
   11  12  1.086  0.892       11  13  1.085  0.953       11  14  1.087  0.932
   12  13  1.750 -0.072       12  14  1.754 -0.083       13  14  1.754 -0.064

                       TOTAL       BONDED        FREE
      ATOM            VALENCE     VALENCE     VALENCE
    1 C                 3.980       3.980       0.000
    2 H                 0.762       0.762      -0.000
    3 H                 0.818       0.818      -0.000
    4 H                 0.771       0.771       0.000
    5 C                 4.236       4.236      -0.000
    6 H                 0.676       0.676       0.000
    7 H                 0.719       0.719       0.000
    8 C                 4.236       4.236       0.000
    9 H                 0.676       0.676      -0.000
   10 H                 0.719       0.719      -0.000
   11 C                 3.980       3.980       0.000
   12 H                 0.762       0.762       0.000
   13 H                 0.818       0.818       0.000
   14 H                 0.771       0.771       0.000

          ---------------------
          ELECTROSTATIC MOMENTS
          ---------------------

 POINT   1           X           Y           Z (BOHR)    CHARGE
                 0.000000    0.000000   -0.000000        0.00 (A.U.)
         DX          DY          DZ         /D/  (DEBYE)
    -0.000000    0.095775   -0.000002    0.095775
 ...... END OF PROPERTY EVALUATION ......
 CPU     0: STEP CPU TIME=     0.05 TOTAL CPU TIME=       32.2 (    0.5 MIN)
 TOTAL WALL CLOCK TIME=       32.6 SECONDS, CPU UTILIZATION IS  98.96%



 ---------------------------     ------------------------------
 DISTRIBUTED DATA MP2 ENERGY     PROGRAM WRITTEN BY G. FLETCHER
 ---------------------------     ------------------------------

 DDI: Creating Array [0] - 36100 x 91 = 3285100 words.
    THIS CALCULATION IS RUNNING WITH MWORDS=    5, MEMDDI=     100, AND P=    8
 MEMORY USAGE PER CPU IS 8*(MWORDS + MEMDDI/P)/1024 =    0.1 GBYTES.

 MINIMAL REQUIREMENT FOR THIS RUN IS MWORDS=    1, MEMDDI=       3.
 FOR P=    8, THE MEMORY USAGE PER CPU(CORE) WOULD BE    0.0 GBYTES.


      DIRECT 4-INDEX TRANSFORMATION 
      SCHWARZ INEQUALITY TEST SKIPPED     144915 INTEGRAL BLOCKS

 RESULTS OF MOLLER-PLESSET 2ND ORDER CORRECTION ARE
                     E(SCF)=      -157.3133704662
                       E(2)=        -0.6102318077
                     E(MP2)=      -157.9236022739
 SPIN-COMPONENT-SCALED MP2 RESULTS ARE
                      E(2S)=        -0.4748171167
                      E(2T)=        -0.1354146910
                     E(2ST)=        -0.6149187703 = 6/5 * E(2S) + 1/3 * E(2T)
                    SCS-MP2=      -157.9282892365
 ..... DONE WITH MP2 ENERGY .....
 CPU     0: STEP CPU TIME=     9.61 TOTAL CPU TIME=       41.8 (    0.7 MIN)
 TOTAL WALL CLOCK TIME=       42.2 SECONDS, CPU UTILIZATION IS  99.15%
               580000  WORDS OF DYNAMIC MEMORY USED
 EXECUTION OF GAMESS TERMINATED NORMALLY Fri Feb  5 10:01:14 2016
 DDI: 3729224 bytes (3.6 MB / 0 MWords) used by master data server.

 ----------------------------------------
 CPU timing information for all processes
 ========================================
 0: 41.755 + 0.105 = 41.861
 1: 41.261 + 0.69 = 41.331
 2: 40.730 + 0.83 = 40.814
 3: 40.534 + 0.63 = 40.598
 4: 41.585 + 0.82 = 41.668
 5: 41.383 + 0.68 = 41.452
 6: 40.233 + 0.87 = 40.321
 7: 40.550 + 0.59 = 40.610
 ----------------------------------------
 ddikick.x: exited gracefully.
unset echo
----- accounting info -----
Files used on the master node wr30 were:
-rw-r--r-- 1 kkirsc3m fb03-hpc  562667 Feb  5 10:01 /tmp/4608.wr0.wr.inf.h-brs.de/03.dat
-rw-r--r-- 1 kkirsc3m fb03-hpc    1284 Feb  5 10:00 /tmp/4608.wr0.wr.inf.h-brs.de/03.F05
-rw-r--r-- 1 kkirsc3m fb03-hpc 4155440 Feb  5 10:01 /tmp/4608.wr0.wr.inf.h-brs.de/03.F10
ls: No match.
ls: No match.
ls: No match.
Fri Feb  5 10:01:17 CET 2016
0.278u 0.082s 0:45.63 0.7%	0+0k 16+192io 0pf+0w
