----- GAMESS execution script 'rungms' -----
This job is running on host wr28
under operating system Linux at Fri Feb 5 10:00:44 CET 2016
PBS has assigned the following compute nodes to this run:
wr28
Available scratch disk space (Kbyte units) at beginning of the job is
Filesystem     1K-blocks    Used Available Use% Mounted on
/dev/sda2      379797844 8187564 352311004   3% /
GAMESS temporary binary files will be written to /tmp/4609.wr0.wr.inf.h-brs.de
GAMESS supplementary output files will be written to /tmp/4609.wr0.wr.inf.h-brs.de
Copying input file 04.inp to your run's scratch directory...
cp 04.inp /tmp/4609.wr0.wr.inf.h-brs.de/04.F05
unset echo
/usr/local/hpc5/gamess-gnu/ddikick.x /usr/local/hpc5/gamess-gnu/gamess.00.x 04 -ddi 1 8 wr28:cpus=8:netext=.myri -scr /tmp/4609.wr0.wr.inf.h-brs.de

 Distributed Data Interface kickoff program.
 Initiating 8 compute processes on 1 nodes to run the following command:
 /usr/local/hpc5/gamess-gnu/gamess.00.x 04 

          ******************************************************
          *         GAMESS VERSION =  1 MAY 2013 (R1)          *
          *             FROM IOWA STATE UNIVERSITY             *
          * M.W.SCHMIDT, K.K.BALDRIDGE, J.A.BOATZ, S.T.ELBERT, *
          *   M.S.GORDON, J.H.JENSEN, S.KOSEKI, N.MATSUNAGA,   *
          *          K.A.NGUYEN, S.J.SU, T.L.WINDUS,           *
          *       TOGETHER WITH M.DUPUIS, J.A.MONTGOMERY       *
          *         J.COMPUT.CHEM.  14, 1347-1363(1993)        *
          **************** 64 BIT LINUX VERSION ****************

  SINCE 1993, STUDENTS AND POSTDOCS WORKING AT IOWA STATE UNIVERSITY
  AND ALSO IN THEIR VARIOUS JOBS AFTER LEAVING ISU HAVE MADE IMPORTANT
  CONTRIBUTIONS TO THE CODE:
     IVANA ADAMOVIC, CHRISTINE AIKENS, YURI ALEXEEV, POOJA ARORA,
     ANDREY ASADCHEV, ROB BELL, PRADIPTA BANDYOPADHYAY, JONATHAN BENTZ,
     BRETT BODE, GALINA CHABAN, WEI CHEN, CHEOL HO CHOI, PAUL DAY,
     ALBERT DEFUSCO, TIM DUDLEY, DMITRI FEDOROV, GRAHAM FLETCHER,
     MARK FREITAG, KURT GLAESEMANN, DAN KEMP, GRANT MERRILL,
     NORIYUKI MINEZAWA, JONATHAN MULLIN, TAKESHI NAGATA,
     SEAN NEDD, HEATHER NETZLOFF, BOSILJKA NJEGIC, RYAN OLSON, MIKE PAK,
     JIM SHOEMAKER, LYUDMILA SLIPCHENKO, SAROM SOK, JIE SONG,
     TETSUYA TAKETSUGU, SIMON WEBB, SOOHAENG YOO, FEDERICO ZAHARIEV

  ADDITIONAL CODE HAS BEEN PROVIDED BY COLLABORATORS IN OTHER GROUPS:
     IOWA STATE UNIVERSITY:
          JOE IVANIC, LAIMUTIS BYTAUTAS, KLAUS RUEDENBERG
     UNIVERSITY OF TOKYO: KIMIHIKO HIRAO, TAKAHITO NAKAJIMA,
          TAKAO TSUNEDA, MUNEAKI KAMIYA, SUSUMU YANAGISAWA,
          KIYOSHI YAGI, MAHITO CHIBA, SEIKEN TOKURA, NAOAKI KAWAKAMI
     UNIVERSITY OF AARHUS: FRANK JENSEN
     UNIVERSITY OF IOWA: VISVALDAS KAIRYS, HUI LI
     NATIONAL INST. OF STANDARDS AND TECHNOLOGY: WALT STEVENS, DAVID GARMER
     UNIVERSITY OF PISA: BENEDETTA MENNUCCI, JACOPO TOMASI
     UNIVERSITY OF MEMPHIS: HENRY KURTZ, PRAKASHAN KORAMBATH
     UNIVERSITY OF ALBERTA: TOBY ZENG, MARIUSZ KLOBUKOWSKI
     UNIVERSITY OF NEW ENGLAND: MARK SPACKMAN
     MIE UNIVERSITY: HIROAKI UMEDA
     MICHIGAN STATE UNIVERSITY:
          KAROL KOWALSKI, MARTA WLOCH, JEFFREY GOUR, JESSE LUTZ,
          WEI LI, PIOTR PIECUCH
     UNIVERSITY OF SILESIA: MONIKA MUSIAL, STANISLAW KUCHARSKI
     FACULTES UNIVERSITAIRES NOTRE-DAME DE LA PAIX:
          OLIVIER QUINET, BENOIT CHAMPAGNE
     UNIVERSITY OF CALIFORNIA - SANTA BARBARA: BERNARD KIRTMAN
     INSTITUTE FOR MOLECULAR SCIENCE:
          KAZUYA ISHIMURA, MICHIO KATOUDA, AND SHIGERU NAGASE
     UNIVERSITY OF NOTRE DAME: DAN CHIPMAN
     KYUSHU UNIVERSITY:
          HARUYUKI NAKANO,
          FENG LONG GU, JACEK KORCHOWIEC, MARCIN MAKOWSKI, AND YURIKO AOKI,
          HIROTOSHI MORI AND EISAKU MIYOSHI
     PENNSYLVANIA STATE UNIVERSITY:
          TZVETELIN IORDANOV, CHET SWALINA, JONATHAN SKONE,
          SHARON HAMMES-SCHIFFER
     WASEDA UNIVERSITY:
          MASATO KOBAYASHI, TOMOKO AKAMA, TSUGUKI TOUMA,
          TAKESHI YOSHIKAWA, YASUHIRO IKABATA, HIROMI NAKAI
     NANJING UNIVERSITY: SHUHUA LI
     UNIVERSITY OF NEBRASKA:
          PEIFENG SU, DEJUN SI, NANDUN THELLAMUREGE, YALI WANG, HUI LI
     UNIVERSITY OF ZURICH:
          ROBERTO PEVERATI, KIM BALDRIDGE
     N. COPERNICUS UNIVERSITY AND JACKSON STATE UNIVERSITY:
          MARIA BARYSZ


 PARALLEL VERSION RUNNING ON     8 PROCESSORS IN     1 NODES.

 EXECUTION OF GAMESS BEGUN Fri Feb  5 10:00:44 2016

            ECHO OF THE FIRST FEW INPUT CARDS -
 INPUT CARD> $CONTRL  ICHARG=0 MPLEVL=2 ISPHER=1                                            
 INPUT CARD>          RUNTYP=ENERGY SCFTYP=RHF EXETYP=RUN                                   
 INPUT CARD>          MULT=1 UNITS=ANGS MAXIT=200                                           
 INPUT CARD>          COORD=PRINAXIS                       $END                             
 INPUT CARD> $SCF     DIRSCF=.T. CONV=1.0E-08  FDIFF=.F.   $END                             
 INPUT CARD> $SYSTEM  TIMLIM=50000 MWORDS=5 MEMDDI=100     $END                             
 INPUT CARD> $BASIS   GBASIS=ACCD                          $END                             
 INPUT CARD> $GUESS   GUESS=HUCKEL                         $END                             
 INPUT CARD> $DATA                                                                          
 INPUT CARD>Full optimization                                                               
 INPUT CARD> C1                                                                             
 INPUT CARD> C           6.0  -1.6925442338   0.4797714075  -0.1424575784                   
 INPUT CARD> H           1.0  -2.5970913034   0.4700924387   0.4581179977                   
 INPUT CARD> H           1.0  -1.3101030962   1.4967917687  -0.1427288323                   
 INPUT CARD> H           1.0  -1.9694037130   0.2319428970  -1.1629773578                   
 INPUT CARD> C           6.0  -0.6598061479  -0.5124323959   0.3953096874                   
 INPUT CARD> H           1.0  -1.0969770163  -1.5071803890   0.3638198836                   
 INPUT CARD> H           1.0  -0.4576133628  -0.3052523844   1.4433818713                   
 INPUT CARD> C           6.0   0.6598640388  -0.5122582073  -0.3954400808                   
 INPUT CARD> H           1.0   1.0971450364  -1.5069657147  -0.3642115047                   
 INPUT CARD> H           1.0   0.4576441861  -0.3048245242  -1.4434569390                   
 INPUT CARD> C           6.0   1.6924904944   0.4799248822   0.1425800839                   
 INPUT CARD> H           1.0   2.5970342424   0.4705099758  -0.4580046802                   
 INPUT CARD> H           1.0   1.3099291760   1.4968999164   0.1431203514                   
 INPUT CARD> H           1.0   1.9693864197   0.2318621978   1.1630331302                   
 INPUT CARD> $END                                                                           
    5000000 WORDS OF MEMORY AVAILABLE

     BASIS OPTIONS
     -------------
     GBASIS=ACCD         IGAUSS=       0      POLAR=NONE    
     NDFUNC=       0     NFFUNC=       0     DIFFSP=       F
     NPFUNC=       0      DIFFS=       F     BASNAM=        


     RUN TITLE
     ---------
 Full optimization                                                               

 THE POINT GROUP OF THE MOLECULE IS C1      
 THE ORDER OF THE PRINCIPAL AXIS IS     0

 THE MOMENTS OF INERTIA ARE (AMU-ANGSTROM**2)
 IXX=    33.558   IYY=   118.816   IZZ=   128.582

 ATOM      ATOMIC                      COORDINATES (BOHR)
           CHARGE         X                   Y                   Z
 C           6.0     3.1983595059        0.9067815124        0.2697305059
 H           1.0     4.9078517537        0.8887315964       -0.8649764798
 H           1.0     2.4755426758        2.8286307039        0.2703959001
 H           1.0     3.7213277092        0.4382368003        2.1982403752
 C           6.0     1.2470026655       -0.9681915575       -0.7469910786
 H           1.0     2.0732336527       -2.8479539350       -0.6876181807
 H           1.0     0.8651450204       -0.5764468125       -2.7275591982
 C           6.0    -1.2470034667       -0.9681929235        0.7469903991
 H           1.0    -2.0732317275       -2.8479563449        0.6876314260
 H           1.0    -0.8651386115       -0.5764313863        2.7275539464
 C           6.0    -3.1983596616        0.9067815241       -0.2697305928
 H           1.0    -4.9078436106        0.8887492465        0.8649891526
 H           1.0    -2.4755312831        2.8286263305       -0.2704138832
 H           1.0    -3.7213441845        0.4382277474       -2.1982339329

          INTERNUCLEAR DISTANCES (ANGS.)
          ------------------------------

                1 C          2 H          3 H          4 H          5 C     

   1 C       0.0000000    1.0858131 *  1.0865504 *  1.0860620 *  1.5297745 *
   2 H       1.0858131 *  0.0000000    1.7525601 *  1.7546102 *  2.1731023 *
   3 H       1.0865504 *  1.7525601 *  0.0000000    1.7536895 *  2.1793011 *
   4 H       1.0860620 *  1.7546102 *  1.7536895 *  0.0000000    2.1673484 *
   5 C       1.5297745 *  2.1731023 *  2.1793011 *  2.1673484 *  0.0000000  
   6 H       2.1351802 *  2.4837155 *  3.0538276    2.4732141 *  1.0870297 *
   7 H       2.1578238 *  2.4797722 *  2.5475182 *  3.0605877    1.0873182 *
   8 C       2.5655307 *  3.5073255    2.8250514 *  2.8383089 *  1.5384455 *
   9 H       3.4320060    4.2699376    3.8557045    3.6146302    2.1570458 *
  10 H       2.6327743 *  3.6807462    2.8394798 *  2.5014695 *  2.1616797 *
  11 C       3.3970144    4.3011827    3.1829213    3.8955673    2.5655301 *
  12 H       4.3011788    5.2742982    4.0519594    4.6266896    3.5073253  
  13 H       3.1829156    4.0519583    2.6355794 *  3.7496709    2.8250439 *
  14 H       3.8955746    4.6267027    3.7496817    4.5743188    2.8383142 *

                6 H          7 H          8 C          9 H         10 H     

   1 C       2.1351802 *  2.1578238 *  2.5655307 *  3.4320060    2.6327743 *
   2 H       2.4837155 *  2.4797722 *  3.5073255    4.2699376    3.6807462  
   3 H       3.0538276    2.5475182 *  2.8250514 *  3.8557045    2.8394798 *
   4 H       2.4732141 *  3.0605877    2.8383089 *  3.6146302    2.5014695 *
   5 C       1.0870297 *  1.0873182 *  1.5384455 *  2.1570458 *  2.1616797 *
   6 H       0.0000000    1.7374898 *  2.1570434 *  2.3117529 *  2.6699731 *
   7 H       1.7374898 *  0.0000000    2.1616830 *  2.6699780 *  3.0284542  
   8 C       2.1570434 *  2.1616830 *  0.0000000    1.0870294 *  1.0873182 *
   9 H       2.3117529 *  2.6699780 *  1.0870294 *  0.0000000    1.7374911 *
  10 H       2.6699731 *  3.0284542    1.0873182 *  1.7374911 *  0.0000000  
  11 C       3.4320057    2.6327809 *  1.5297746 *  2.1351834 *  2.1578208 *
  12 H       4.2699384    3.6807540    2.1731029 *  2.4837220 *  2.4797680 *
  13 H       3.8556976    2.8394787 *  2.1793000 *  3.0538290    2.5475141 *
  14 H       3.6146363    2.5014826 *  2.1673493 *  2.4732173 *  3.0605862  

               11 C         12 H         13 H         14 H     

   1 C       3.3970144    4.3011788    3.1829156    3.8955746  
   2 H       4.3011827    5.2742982    4.0519583    4.6267027  
   3 H       3.1829213    4.0519594    2.6355794 *  3.7496817  
   4 H       3.8955673    4.6266896    3.7496709    4.5743188  
   5 C       2.5655301 *  3.5073253    2.8250439 *  2.8383142 *
   6 H       3.4320057    4.2699384    3.8556976    3.6146363  
   7 H       2.6327809 *  3.6807540    2.8394787 *  2.5014826 *
   8 C       1.5297746 *  2.1731029 *  2.1793000 *  2.1673493 *
   9 H       2.1351834 *  2.4837220 *  3.0538290    2.4732173 *
  10 H       2.1578208 *  2.4797680 *  2.5475141 *  3.0605862  
  11 C       0.0000000    1.0858131 *  1.0865504 *  1.0860621 *
  12 H       1.0858131 *  0.0000000    1.7525601 *  1.7546105 *
  13 H       1.0865504 *  1.7525601 *  0.0000000    1.7536894 *
  14 H       1.0860621 *  1.7546105 *  1.7536894 *  0.0000000  

  * ... LESS THAN  3.000


     ATOMIC BASIS SET
     ----------------
 THE CONTRACTED PRIMITIVE FUNCTIONS HAVE BEEN UNNORMALIZED
 THE CONTRACTED BASIS FUNCTIONS ARE NOW NORMALIZED TO UNITY

  SHELL TYPE  PRIMITIVE        EXPONENT          CONTRACTION COEFFICIENT(S)

 C         

      1   S       1          6665.0000000    0.000691583963
      1   S       2          1000.0000000    0.005325796153
      1   S       3           228.0000000    0.027060721042
      1   S       4            64.7100000    0.101656846141
      1   S       5            21.0600000    0.274574823617
      1   S       6             7.4950000    0.448294318924
      1   S       7             2.7970000    0.284902610715
      1   S       8             0.5215000    0.015194859206

      2   S       9          6665.0000000   -0.000293269653
      2   S      10          1000.0000000   -0.002318035474
      2   S      11           228.0000000   -0.011499786039
      2   S      12            64.7100000   -0.046826727010
      2   S      13            21.0600000   -0.128466168750
      2   S      14             7.4950000   -0.301266272463
      2   S      15             2.7970000   -0.255630702330
      2   S      16             0.5215000    1.093793361012

      3   S      17             0.1596000    1.000000000000

      4   P      18             9.4390000    0.056979251590
      4   P      19             2.0020000    0.313207211501
      4   P      20             0.5456000    0.760376741738

      5   P      21             0.1517000    1.000000000000

      6   D      22             0.5500000    1.000000000000

      7   S      23             0.0469000    1.000000000000

      8   P      24             0.0404100    1.000000000000

      9   D      25             0.1510000    1.000000000000

 H         

     10   S      26            13.0100000    0.033498726390
     10   S      27             1.9620000    0.234800801174
     10   S      28             0.4446000    0.813682957883

     11   S      29             0.1220000    1.000000000000

     12   P      30             0.7270000    1.000000000000

     13   S      31             0.0297400    1.000000000000

     14   P      32             0.1410000    1.000000000000

 H         

     15   S      33            13.0100000    0.033498726390
     15   S      34             1.9620000    0.234800801174
     15   S      35             0.4446000    0.813682957883

     16   S      36             0.1220000    1.000000000000

     17   P      37             0.7270000    1.000000000000

     18   S      38             0.0297400    1.000000000000

     19   P      39             0.1410000    1.000000000000

 H         

     20   S      40            13.0100000    0.033498726390
     20   S      41             1.9620000    0.234800801174
     20   S      42             0.4446000    0.813682957883

     21   S      43             0.1220000    1.000000000000

     22   P      44             0.7270000    1.000000000000

     23   S      45             0.0297400    1.000000000000

     24   P      46             0.1410000    1.000000000000

 C         

     25   S      47          6665.0000000    0.000691583963
     25   S      48          1000.0000000    0.005325796153
     25   S      49           228.0000000    0.027060721042
     25   S      50            64.7100000    0.101656846141
     25   S      51            21.0600000    0.274574823617
     25   S      52             7.4950000    0.448294318924
     25   S      53             2.7970000    0.284902610715
     25   S      54             0.5215000    0.015194859206

     26   S      55          6665.0000000   -0.000293269653
     26   S      56          1000.0000000   -0.002318035474
     26   S      57           228.0000000   -0.011499786039
     26   S      58            64.7100000   -0.046826727010
     26   S      59            21.0600000   -0.128466168750
     26   S      60             7.4950000   -0.301266272463
     26   S      61             2.7970000   -0.255630702330
     26   S      62             0.5215000    1.093793361012

     27   S      63             0.1596000    1.000000000000

     28   P      64             9.4390000    0.056979251590
     28   P      65             2.0020000    0.313207211501
     28   P      66             0.5456000    0.760376741738

     29   P      67             0.1517000    1.000000000000

     30   D      68             0.5500000    1.000000000000

     31   S      69             0.0469000    1.000000000000

     32   P      70             0.0404100    1.000000000000

     33   D      71             0.1510000    1.000000000000

 H         

     34   S      72            13.0100000    0.033498726390
     34   S      73             1.9620000    0.234800801174
     34   S      74             0.4446000    0.813682957883

     35   S      75             0.1220000    1.000000000000

     36   P      76             0.7270000    1.000000000000

     37   S      77             0.0297400    1.000000000000

     38   P      78             0.1410000    1.000000000000

 H         

     39   S      79            13.0100000    0.033498726390
     39   S      80             1.9620000    0.234800801174
     39   S      81             0.4446000    0.813682957883

     40   S      82             0.1220000    1.000000000000

     41   P      83             0.7270000    1.000000000000

     42   S      84             0.0297400    1.000000000000

     43   P      85             0.1410000    1.000000000000

 C         

     44   S      86          6665.0000000    0.000691583963
     44   S      87          1000.0000000    0.005325796153
     44   S      88           228.0000000    0.027060721042
     44   S      89            64.7100000    0.101656846141
     44   S      90            21.0600000    0.274574823617
     44   S      91             7.4950000    0.448294318924
     44   S      92             2.7970000    0.284902610715
     44   S      93             0.5215000    0.015194859206

     45   S      94          6665.0000000   -0.000293269653
     45   S      95          1000.0000000   -0.002318035474
     45   S      96           228.0000000   -0.011499786039
     45   S      97            64.7100000   -0.046826727010
     45   S      98            21.0600000   -0.128466168750
     45   S      99             7.4950000   -0.301266272463
     45   S     100             2.7970000   -0.255630702330
     45   S     101             0.5215000    1.093793361012

     46   S     102             0.1596000    1.000000000000

     47   P     103             9.4390000    0.056979251590
     47   P     104             2.0020000    0.313207211501
     47   P     105             0.5456000    0.760376741738

     48   P     106             0.1517000    1.000000000000

     49   D     107             0.5500000    1.000000000000

     50   S     108             0.0469000    1.000000000000

     51   P     109             0.0404100    1.000000000000

     52   D     110             0.1510000    1.000000000000

 H         

     53   S     111            13.0100000    0.033498726390
     53   S     112             1.9620000    0.234800801174
     53   S     113             0.4446000    0.813682957883

     54   S     114             0.1220000    1.000000000000

     55   P     115             0.7270000    1.000000000000

     56   S     116             0.0297400    1.000000000000

     57   P     117             0.1410000    1.000000000000

 H         

     58   S     118            13.0100000    0.033498726390
     58   S     119             1.9620000    0.234800801174
     58   S     120             0.4446000    0.813682957883

     59   S     121             0.1220000    1.000000000000

     60   P     122             0.7270000    1.000000000000

     61   S     123             0.0297400    1.000000000000

     62   P     124             0.1410000    1.000000000000

 C         

     63   S     125          6665.0000000    0.000691583963
     63   S     126          1000.0000000    0.005325796153
     63   S     127           228.0000000    0.027060721042
     63   S     128            64.7100000    0.101656846141
     63   S     129            21.0600000    0.274574823617
     63   S     130             7.4950000    0.448294318924
     63   S     131             2.7970000    0.284902610715
     63   S     132             0.5215000    0.015194859206

     64   S     133          6665.0000000   -0.000293269653
     64   S     134          1000.0000000   -0.002318035474
     64   S     135           228.0000000   -0.011499786039
     64   S     136            64.7100000   -0.046826727010
     64   S     137            21.0600000   -0.128466168750
     64   S     138             7.4950000   -0.301266272463
     64   S     139             2.7970000   -0.255630702330
     64   S     140             0.5215000    1.093793361012

     65   S     141             0.1596000    1.000000000000

     66   P     142             9.4390000    0.056979251590
     66   P     143             2.0020000    0.313207211501
     66   P     144             0.5456000    0.760376741738

     67   P     145             0.1517000    1.000000000000

     68   D     146             0.5500000    1.000000000000

     69   S     147             0.0469000    1.000000000000

     70   P     148             0.0404100    1.000000000000

     71   D     149             0.1510000    1.000000000000

 H         

     72   S     150            13.0100000    0.033498726390
     72   S     151             1.9620000    0.234800801174
     72   S     152             0.4446000    0.813682957883

     73   S     153             0.1220000    1.000000000000

     74   P     154             0.7270000    1.000000000000

     75   S     155             0.0297400    1.000000000000

     76   P     156             0.1410000    1.000000000000

 H         

     77   S     157            13.0100000    0.033498726390
     77   S     158             1.9620000    0.234800801174
     77   S     159             0.4446000    0.813682957883

     78   S     160             0.1220000    1.000000000000

     79   P     161             0.7270000    1.000000000000

     80   S     162             0.0297400    1.000000000000

     81   P     163             0.1410000    1.000000000000

 H         

     82   S     164            13.0100000    0.033498726390
     82   S     165             1.9620000    0.234800801174
     82   S     166             0.4446000    0.813682957883

     83   S     167             0.1220000    1.000000000000

     84   P     168             0.7270000    1.000000000000

     85   S     169             0.0297400    1.000000000000

     86   P     170             0.1410000    1.000000000000

 TOTAL NUMBER OF BASIS SET SHELLS             =   86
 NUMBER OF CARTESIAN GAUSSIAN BASIS FUNCTIONS =  190
 NOTE: THIS RUN WILL RESTRICT THE MO VARIATION SPACE TO SPHERICAL HARMONICS.
 THE NUMBER OF ORBITALS KEPT IN THE VARIATIONAL SPACE WILL BE PRINTED LATER.
 NUMBER OF ELECTRONS                          =   34
 CHARGE OF MOLECULE                           =    0
 SPIN MULTIPLICITY                            =    1
 NUMBER OF OCCUPIED ORBITALS (ALPHA)          =   17
 NUMBER OF OCCUPIED ORBITALS (BETA )          =   17
 TOTAL NUMBER OF ATOMS                        =   14
 THE NUCLEAR REPULSION ENERGY IS      131.8889207722

     $CONTRL OPTIONS
     ---------------
 SCFTYP=RHF          RUNTYP=ENERGY       EXETYP=RUN     
 MPLEVL=       2     CITYP =NONE         CCTYP =NONE         VBTYP =NONE    
 DFTTYP=NONE         TDDFT =NONE    
 MULT  =       1     ICHARG=       0     NZVAR =       0     COORD =PRINAXIS
 PP    =NONE         RELWFN=NONE         LOCAL =NONE         NUMGRD=       F
 ISPHER=       1     NOSYM =       0     MAXIT =     200     UNITS =ANGS    
 PLTORB=       F     MOLPLT=       F     AIMPAC=       F     FRIEND=        
 NPRINT=       7     IREST =       0     GEOM  =INPUT   
 NORMF =       0     NORMP =       0     ITOL  =      20     ICUT  =       9
 INTTYP=BEST         GRDTYP=BEST         QMTTOL= 1.0E-06

     $SYSTEM OPTIONS
     ---------------
  REPLICATED MEMORY=     5000000 WORDS (ON EVERY NODE).
 DISTRIBUTED MEMDDI=         100 MILLION WORDS IN AGGREGATE,
 MEMDDI DISTRIBUTED OVER   8 PROCESSORS IS    12500000 WORDS/PROCESSOR.
 TOTAL MEMORY REQUESTED ON EACH PROCESSOR=    17500000 WORDS.
 TIMLIM=       50000.00 MINUTES, OR      34.7 DAYS.
 PARALL= T  BALTYP=  DLB     KDIAG=    0  COREFL= F
 MXSEQ2=     300 MXSEQ3=     150

          ----------------
          PROPERTIES INPUT
          ----------------

     MOMENTS            FIELD           POTENTIAL          DENSITY
 IEMOM =       1   IEFLD =       0   IEPOT =       0   IEDEN =       0
 WHERE =COMASS     WHERE =NUCLEI     WHERE =NUCLEI     WHERE =NUCLEI  
 OUTPUT=BOTH       OUTPUT=BOTH       OUTPUT=BOTH       OUTPUT=BOTH    
 IEMINT=       0   IEFINT=       0                     IEDINT=       0
                                                       MORB  =       0
          EXTRAPOLATION IN EFFECT
          SOSCF IN EFFECT
 ORBITAL PRINTING OPTION: NPREO=     1   190     2     1

     -------------------------------
     INTEGRAL TRANSFORMATION OPTIONS
     -------------------------------
     NWORD  =            0
     CUTOFF = 1.0E-09     MPTRAN =       0
     DIRTRF =       T     AOINTS =DUP     

          ----------------------
          INTEGRAL INPUT OPTIONS
          ----------------------
 NOPK  =       1 NORDER=       0 SCHWRZ=       T

          -----------------------
          MP2 CONTROL INFORMATION
          -----------------------
          NACORE =        4  NBCORE =        4
          LMOMP2 =        F  AOINTS = DUP     
          METHOD =        2  NWORD  =               0
          MP2PRP =        F  OSPT   = NONE    
          CUTOFF = 1.00E-09  CPHFBS = BASISAO 
          CODE   = DDI     

          NUMBER OF CORE -A-  ORBITALS =     4
          NUMBER OF CORE -B-  ORBITALS =     4
          NUMBER OF OCC. -A-  ORBITALS =    17
          NUMBER OF OCC. -B-  ORBITALS =    17
          NUMBER OF MOLECULAR ORBITALS =   190
          NUMBER OF   BASIS  FUNCTIONS =   190


     ------------------------------------------
     THE POINT GROUP IS C1 , NAXIS= 0, ORDER= 1
     ------------------------------------------

 -- VARIATIONAL SPACE WILL BE RESTRICTED TO PURE SPHERICAL HARMONICS ONLY --
 AFTER EXCLUDING CONTAMINANT COMBINATIONS FROM THE CARTESIAN GAUSSIAN BASIS
 SET, THE NUMBER OF SPHERICAL HARMONICS KEPT IN THE VARIATION SPACE IS  182

     DIMENSIONS OF THE SYMMETRY SUBSPACES ARE
 A   =  182

 ..... DONE SETTING UP THE RUN .....
 CPU     0: STEP CPU TIME=     0.03 TOTAL CPU TIME=        0.0 (    0.0 MIN)
 TOTAL WALL CLOCK TIME=        0.0 SECONDS, CPU UTILIZATION IS  60.00%

          ********************
          1 ELECTRON INTEGRALS
          ********************
 ...... END OF ONE-ELECTRON INTEGRALS ......
 CPU     0: STEP CPU TIME=     0.00 TOTAL CPU TIME=        0.0 (    0.0 MIN)
 TOTAL WALL CLOCK TIME=        0.1 SECONDS, CPU UTILIZATION IS  42.86%

          -------------
          GUESS OPTIONS
          -------------
          GUESS =HUCKEL            NORB  =       0          NORDER=       0
          MIX   =       F          PRTMO =       F          PUNMO =       F
          TOLZ  = 1.0E-08          TOLE  = 1.0E-05
          SYMDEN=       F          PURIFY=       F

 INITIAL GUESS ORBITALS GENERATED BY HUCKEL   ROUTINE.
 HUCKEL GUESS REQUIRES    272744 WORDS.

 STATISTICS FOR GENERATION OF SYMMETRY ORBITAL -Q- MATRIX
 NUMBER OF CARTESIAN ATOMIC ORBITALS=        190
 NUMBER OF SPHERICAL CONTAMINANTS DROPPED=     8
 NUMBER OF LINEARLY DEPENDENT MOS DROPPED=     0
 TOTAL NUMBER OF MOS IN VARIATION SPACE=     182

 SYMMETRIES FOR INITIAL GUESS ORBITALS FOLLOW.   BOTH SET(S).
    17 ORBITALS ARE OCCUPIED (    4 CORE ORBITALS).
     5=A        6=A        7=A        8=A        9=A       10=A       11=A   
    12=A       13=A       14=A       15=A       16=A       17=A       18=A   
    19=A       20=A       21=A       22=A       23=A       24=A       25=A   
    26=A       27=A   
 ...... END OF INITIAL ORBITAL SELECTION ......
 CPU     0: STEP CPU TIME=     0.07 TOTAL CPU TIME=        0.1 (    0.0 MIN)
 TOTAL WALL CLOCK TIME=        0.2 SECONDS, CPU UTILIZATION IS  47.62%

                    ----------------------
                    AO INTEGRAL TECHNOLOGY
                    ----------------------
     S,P,L SHELL ROTATED AXIS INTEGRALS, REPROGRAMMED BY
        KAZUYA ISHIMURA (IMS) AND JOSE SIERRA (SYNSTAR).
     S,P,D,L SHELL ROTATED AXIS INTEGRALS PROGRAMMED BY
        KAZUYA ISHIMURA (INSTITUTE FOR MOLECULAR SCIENCE).
     S,P,D,F,G SHELL TO TOTAL QUARTET ANGULAR MOMENTUM SUM 5,
        ERIC PROGRAM BY GRAHAM FLETCHER (ELORET AND NASA ADVANCED
        SUPERCOMPUTING DIVISION, AMES RESEARCH CENTER).
     S,P,D,F,G,L SHELL GENERAL RYS QUADRATURE PROGRAMMED BY
        MICHEL DUPUIS (PACIFIC NORTHWEST NATIONAL LABORATORY).

          --------------------
          2 ELECTRON INTEGRALS
          --------------------

 DIRECT SCF METHOD SKIPS INTEGRAL STORAGE ON DISK.
 DIRECT TRANSFORMATION SKIPS AO INTEGRAL STORAGE ON DISK.
  ...... END OF TWO-ELECTRON INTEGRALS .....
 CPU     0: STEP CPU TIME=     0.03 TOTAL CPU TIME=        0.1 (    0.0 MIN)
 TOTAL WALL CLOCK TIME=        0.2 SECONDS, CPU UTILIZATION IS  56.52%

          --------------------------
                 RHF SCF CALCULATION
          --------------------------

     NUCLEAR ENERGY =       131.8889207722
     MAXIT =  200     NPUNCH=    2
     EXTRAP=T  DAMP=F  SHIFT=F  RSTRCT=F  DIIS=F  DEM=F  SOSCF=T
     DENSITY MATRIX CONV=  2.00E-08
     SOSCF WILL OPTIMIZE    2805 ORBITAL ROTATIONS, SOGTOL=   0.250
     MEMORY REQUIRED FOR RHF ITERS=    319458 WORDS.

 DIRECT SCF CALCULATION, SCHWRZ=T   FDIFF=F,  DIRTHR=  0.00E+00 NITDIR=10
 SCHWARZ INEQUALITY OVERHEAD:     18145 INTEGRALS, T=        0.00

                                                                                   NONZERO     BLOCKS
 ITER EX DEM     TOTAL ENERGY        E CHANGE  DENSITY CHANGE     ORB. GRAD      INTEGRALS    SKIPPED
   1  0  0     -156.9184687123  -156.9184687123   0.748510688   0.000000000      159737468     129381
          ---------------START SECOND ORDER SCF---------------
   2  1  0     -157.2849010169    -0.3664323047   0.139227237   0.016070112      159815661     136448
   3  2  0     -157.3074011029    -0.0225000860   0.020585888   0.008417726      159830803     135804
   4  3  0     -157.3115122473    -0.0041111444   0.010024770   0.001082565      159836042     135405
   5  4  0     -157.3116528775    -0.0001406302   0.001729805   0.000314370      159833302     135634
   6  5  0     -157.3116602308    -0.0000073533   0.000612159   0.000095269      159832013     135724
   7  6  0     -157.3116609486    -0.0000007179   0.000205302   0.000021563      159831792     135735
   8  7  0     -157.3116609870    -0.0000000384   0.000040402   0.000003515      159831891     135720
   9  8  0     -157.3116609888    -0.0000000018   0.000010520   0.000000832      159831875     135720
  10  9  0     -157.3116609889    -0.0000000001   0.000003706   0.000000238      159831841     135722
  11 10  0     -157.3116609889    -0.0000000000   0.000000519   0.000000053      159831836     135723
  12 11  0     -157.3116609889     0.0000000000   0.000000239   0.000000013      159831836     135723
  13 12  0     -157.3116609889    -0.0000000000   0.000000000   0.000000002      159831836     135723

          -----------------
          DENSITY CONVERGED
          -----------------
     TIME TO FORM FOCK OPERATORS=      32.6 SECONDS (       2.5 SEC/ITER)
     FOCK TIME ON FIRST ITERATION=       2.8, LAST ITERATION=       2.7
     TIME TO SOLVE SCF EQUATIONS=       0.1 SECONDS (       0.0 SEC/ITER)

 FINAL RHF ENERGY IS     -157.3116609889 AFTER  13 ITERATIONS

          ------------
          EIGENVECTORS
          ------------

                      1          2          3          4          5
                  -11.2185   -11.2179   -11.2133   -11.2133    -1.0693
                     A          A          A          A          A   
    1  C  1  S    0.039759   0.047197   0.716740  -0.700295  -0.011937
    2  C  1  S   -0.000213   0.000333   0.005449  -0.005417   0.157115
    3  C  1  S    0.009447   0.001717  -0.025517   0.028573   0.026179
    4  C  1  X   -0.000040  -0.000172   0.000020  -0.000077  -0.038805
    5  C  1  Y   -0.000088  -0.000136   0.000059  -0.000073  -0.031227
    6  C  1  Z   -0.000048  -0.000080   0.000027  -0.000048  -0.013984
    7  C  1  X   -0.008427  -0.004601   0.004136  -0.005643   0.008550
    8  C  1  Y   -0.007205  -0.003027   0.004163  -0.004978  -0.021711
    9  C  1  Z   -0.003968  -0.000036   0.001996  -0.002781  -0.023248
   10  C  1 XX    0.000027   0.000074  -0.000027   0.000035   0.002288
   11  C  1 YY   -0.000023  -0.000068  -0.000035   0.000013   0.001384
   12  C  1 ZZ   -0.000005  -0.000006   0.000062  -0.000048  -0.003672
   13  C  1 XY    0.000005  -0.000025  -0.000130   0.000155   0.008607
   14  C  1 XZ   -0.000050  -0.000039  -0.000115   0.000103   0.005614
   15  C  1 YZ    0.000007  -0.000063  -0.000082   0.000098   0.003978
   16  C  1  S   -0.001456  -0.004188  -0.004818   0.010497   0.090807
   17  C  1  X   -0.000460   0.000497   0.000093  -0.001851  -0.027903
   18  C  1  Y   -0.000712   0.000556   0.000364  -0.001478  -0.017581
   19  C  1  Z   -0.000103  -0.000171   0.000256  -0.000599  -0.011724
   20  C  1 XX    0.000968   0.000466  -0.000331  -0.000172  -0.016731
   21  C  1 YY    0.000035   0.000404  -0.000368   0.000511   0.012738
   22  C  1 ZZ   -0.001003  -0.000870   0.000699  -0.000339   0.003993
   23  C  1 XY    0.001849   0.001600  -0.000930   0.001507  -0.000310
   24  C  1 XZ    0.001343   0.000084  -0.000629   0.000577  -0.001404
   25  C  1 YZ    0.001200   0.000084  -0.000676   0.000658   0.006013
   26  H  2  S   -0.000111  -0.000026   0.000261  -0.000313   0.061061
   27  H  2  S    0.003895   0.003884   0.003710  -0.003487  -0.005992
   28  H  2  X    0.000076   0.000041   0.000167  -0.000115  -0.007969
   29  H  2  Y    0.000046  -0.000019  -0.000062   0.000042   0.000079
   30  H  2  Z   -0.000021  -0.000035  -0.000142   0.000163   0.005377
   31  H  2  S    0.000550  -0.000434   0.000431   0.000695   0.010885
   32  H  2  X   -0.000785  -0.001036  -0.001210   0.001319   0.008553
   33  H  2  Y    0.000220  -0.000400  -0.000289   0.000238   0.006968
   34  H  2  Z    0.000425   0.000444   0.000602  -0.000255   0.007257
   35  H  3  S   -0.000122  -0.000004   0.000387  -0.000260   0.066407
   36  H  3  S    0.003210   0.000923   0.003976  -0.005395   0.003817
   37  H  3  X    0.000078  -0.000010  -0.000129   0.000109   0.002540
   38  H  3  Y    0.000089  -0.000010   0.000167  -0.000149  -0.009342
   39  H  3  Z    0.000014  -0.000008  -0.000007   0.000012   0.000142
   40  H  3  S    0.000472   0.000166   0.000212  -0.000004   0.002151
   41  H  3  X    0.000575  -0.000233   0.000098  -0.000428  -0.000632
   42  H  3  Y   -0.000498   0.000042  -0.001331   0.001889  -0.001605
   43  H  3  Z    0.000014   0.000155  -0.000121   0.000207   0.000080
   44  H  4  S    0.000006  -0.000087   0.000280  -0.000371   0.064948
   45  H  4  S    0.002909   0.001539   0.004496  -0.003905   0.022355
   46  H  4  X    0.000065   0.000014   0.000006   0.000013  -0.002775
   47  H  4  Y    0.000014   0.000006  -0.000100   0.000085   0.002308
   48  H  4  Z    0.000048   0.000021   0.000163  -0.000163  -0.008620
   49  H  4  S    0.000095   0.000462   0.000241  -0.000308   0.012523
   50  H  4  X   -0.000100   0.000171  -0.000781   0.000694   0.003003
   51  H  4  Y    0.000191   0.000363   0.000019   0.000068   0.006246
   52  H  4  Z   -0.000419  -0.000159  -0.001595   0.001071  -0.008442
   53  C  5  S    0.708807   0.708778  -0.040921   0.046848  -0.018544
   54  C  5  S    0.005555   0.006020  -0.000669   0.000264   0.234462
   55  C  5  S   -0.026585  -0.038211   0.007805  -0.003438   0.091622
   56  C  5  X   -0.000064   0.000178   0.000218  -0.000006  -0.022570
   57  C  5  Y    0.000019   0.000042   0.000093  -0.000101   0.021204
   58  C  5  Z    0.000075  -0.000069   0.000031  -0.000064   0.032284
   59  C  5  X   -0.007737   0.013388   0.004234  -0.010524   0.008968
   60  C  5  Y   -0.006066  -0.004125   0.005046  -0.006615   0.048114
   61  C  5  Z   -0.003205  -0.011202   0.002794  -0.000804   0.095777
   62  C  5 XX   -0.000132  -0.000189  -0.000041   0.000011   0.009189
   63  C  5 YY    0.000095   0.000071  -0.000044  -0.000072  -0.005248
   64  C  5 ZZ    0.000037   0.000118   0.000085   0.000060  -0.003940
   65  C  5 XY   -0.000231  -0.000058   0.000030   0.000010   0.007097
   66  C  5 XZ    0.000070   0.000086   0.000008  -0.000075  -0.005230
   67  C  5 YZ   -0.000066  -0.000023  -0.000042  -0.000025   0.003251
   68  C  5  S   -0.003255   0.000342  -0.000556   0.005164  -0.105621
   69  C  5  X   -0.000721   0.001263   0.000812  -0.004362  -0.015640
   70  C  5  Y    0.000287  -0.000184   0.000041  -0.001121  -0.025491
   71  C  5  Z   -0.000106   0.000419   0.000623   0.001037  -0.018834
   72  C  5 XX    0.000122  -0.003079   0.001432   0.000163  -0.013800
   73  C  5 YY   -0.000956   0.002938   0.000353  -0.000556   0.006486
   74  C  5 ZZ    0.000833   0.000141  -0.001785   0.000393   0.007314
   75  C  5 XY   -0.002627  -0.000419   0.000991  -0.002287   0.028396
   76  C  5 XZ   -0.000950   0.003013   0.001418  -0.002019  -0.021843
   77  C  5 YZ   -0.001799  -0.001441   0.000438  -0.000968   0.034531
   78  H  6  S    0.000130   0.000268  -0.000112   0.000095   0.098121
   79  H  6  S    0.003863  -0.002670   0.001848  -0.003773   0.044517
   80  H  6  X    0.000104   0.000003  -0.000075   0.000044  -0.005399
   81  H  6  Y   -0.000171  -0.000110   0.000029   0.000040   0.013056
   82  H  6  Z    0.000007   0.000063  -0.000033  -0.000004  -0.000003
   83  H  6  S    0.000626  -0.000396  -0.000020   0.000488  -0.010058
   84  H  6  X   -0.000735  -0.000072  -0.000559   0.000487   0.005885
   85  H  6  Y    0.001438   0.000101   0.000200  -0.000776   0.007538
   86  H  6  Z   -0.000026  -0.000075  -0.000165  -0.000101   0.005441
   87  H  7  S    0.000108   0.000335  -0.000215   0.000042   0.102374
   88  H  7  S    0.002580   0.000281   0.004342  -0.001022   0.087937
   89  H  7  X    0.000044  -0.000113   0.000050   0.000103   0.001833
   90  H  7  Y    0.000054   0.000032  -0.000062   0.000031  -0.002261
   91  H  7  Z   -0.000141  -0.000131  -0.000067  -0.000060   0.013590
   92  H  7  S   -0.000029   0.000791   0.000745  -0.000150  -0.013456
   93  H  7  X    0.000416  -0.000178   0.000602   0.000141  -0.006713
   94  H  7  Y   -0.000290  -0.000414  -0.000565  -0.000124   0.005355
   95  H  7  Z    0.001291   0.000848   0.000833  -0.000131   0.020521
   96  C  8  S    0.708820  -0.708766  -0.039848  -0.047764  -0.018544
   97  C  8  S    0.005555  -0.006020  -0.000663  -0.000279   0.234462
   98  C  8  S   -0.026585   0.038211   0.007725   0.003614   0.091622
   99  C  8  X    0.000064   0.000178  -0.000218  -0.000011   0.022570
  100  C  8  Y    0.000019  -0.000042   0.000091   0.000103   0.021204
  101  C  8  Z   -0.000075  -0.000069  -0.000030  -0.000065  -0.032284
  102  C  8  X    0.007737   0.013388  -0.003994  -0.010618  -0.008968
  103  C  8  Y   -0.006066   0.004125   0.004895   0.006727   0.048113
  104  C  8  Z    0.003205  -0.011202  -0.002776  -0.000867  -0.095778
  105  C  8 XX   -0.000132   0.000189  -0.000040  -0.000012   0.009189
  106  C  8 YY    0.000095  -0.000071  -0.000046   0.000071  -0.005248
  107  C  8 ZZ    0.000037  -0.000118   0.000086  -0.000058  -0.003940
  108  C  8 XY    0.000231  -0.000058  -0.000031   0.000009  -0.007097
  109  C  8 XZ    0.000070  -0.000086   0.000006   0.000075  -0.005230
  110  C  8 YZ    0.000066  -0.000023   0.000042  -0.000024  -0.003251
  111  C  8  S   -0.003255  -0.000342  -0.000439  -0.005176  -0.105621
  112  C  8  X    0.000721   0.001263  -0.000712  -0.004379   0.015640
  113  C  8  Y    0.000287   0.000184   0.000016   0.001122  -0.025491
  114  C  8  Z    0.000106   0.000419  -0.000646   0.001022   0.018835
  115  C  8 XX    0.000122   0.003079   0.001435  -0.000130  -0.013800
  116  C  8 YY   -0.000956  -0.002938   0.000341   0.000564   0.006485
  117  C  8 ZZ    0.000833  -0.000141  -0.001776  -0.000434   0.007315
  118  C  8 XY    0.002627  -0.000419  -0.000939  -0.002309  -0.028397
  119  C  8 XZ   -0.000950  -0.003013   0.001372   0.002051  -0.021842
  120  C  8 YZ    0.001799  -0.001441  -0.000416  -0.000978  -0.034531
  121  H  9  S    0.000130  -0.000268  -0.000110  -0.000098   0.098120
  122  H  9  S    0.003863   0.002670   0.001762   0.003814   0.044517
  123  H  9  X   -0.000104   0.000003   0.000074   0.000046   0.005399
  124  H  9  Y   -0.000171   0.000110   0.000030  -0.000039   0.013056
  125  H  9  Z   -0.000007   0.000063   0.000033  -0.000003   0.000003
  126  H  9  S    0.000626   0.000396  -0.000009  -0.000488  -0.010058
  127  H  9  X    0.000735  -0.000072   0.000548   0.000499  -0.005885
  128  H  9  Y    0.001438  -0.000101   0.000183   0.000780   0.007538
  129  H  9  Z    0.000026  -0.000075   0.000167  -0.000098  -0.005442
  130  H 10  S    0.000108  -0.000335  -0.000214  -0.000047   0.102375
  131  H 10  S    0.002580  -0.000281   0.004318   0.001120   0.087938
  132  H 10  X   -0.000044  -0.000113  -0.000052   0.000102  -0.001833
  133  H 10  Y    0.000054  -0.000032  -0.000062  -0.000033  -0.002261
  134  H 10  Z    0.000141  -0.000131   0.000068  -0.000059  -0.013590
  135  H 10  S   -0.000029  -0.000791   0.000742   0.000167  -0.013456
  136  H 10  X   -0.000416  -0.000178  -0.000605   0.000127   0.006713
  137  H 10  Y   -0.000290   0.000414  -0.000567   0.000111   0.005355
  138  H 10  Z   -0.001291   0.000848  -0.000830  -0.000150  -0.020521
  139  C 11  S    0.039759  -0.047195   0.700678   0.716365  -0.011937
  140  C 11  S   -0.000213  -0.000333   0.005325   0.005539   0.157115
  141  C 11  S    0.009447  -0.001717  -0.024863  -0.029144   0.026179
  142  C 11  X    0.000040  -0.000172  -0.000018  -0.000077   0.038805
  143  C 11  Y   -0.000088   0.000136   0.000058   0.000075  -0.031227
  144  C 11  Z    0.000048  -0.000080  -0.000026  -0.000049   0.013984
  145  C 11  X    0.008427  -0.004601  -0.004007  -0.005736  -0.008550
  146  C 11  Y   -0.007205   0.003027   0.004049   0.005071  -0.021711
  147  C 11  Z    0.003968  -0.000036  -0.001932  -0.002826   0.023248
  148  C 11 XX    0.000027  -0.000074  -0.000026  -0.000036   0.002288
  149  C 11 YY   -0.000023   0.000068  -0.000035  -0.000014   0.001384
  150  C 11 ZZ   -0.000005   0.000006   0.000061   0.000049  -0.003672
  151  C 11 XY   -0.000005  -0.000025   0.000126   0.000158  -0.008607
  152  C 11 XZ   -0.000050   0.000039  -0.000113  -0.000106   0.005615
  153  C 11 YZ   -0.000007  -0.000063   0.000079   0.000100  -0.003978
  154  C 11  S   -0.001456   0.004188  -0.004579  -0.010604   0.090808
  155  C 11  X    0.000460   0.000497  -0.000051  -0.001853   0.027903
  156  C 11  Y   -0.000712  -0.000556   0.000330   0.001486  -0.017581
  157  C 11  Z    0.000103  -0.000171  -0.000243  -0.000604   0.011724
  158  C 11 XX    0.000968  -0.000466  -0.000335   0.000165  -0.016731
  159  C 11 YY    0.000035  -0.000404  -0.000356  -0.000519   0.012738
  160  C 11 ZZ   -0.001003   0.000870   0.000691   0.000355   0.003993
  161  C 11 XY   -0.001849   0.001600   0.000896   0.001528   0.000310
  162  C 11 XZ    0.001343  -0.000084  -0.000615  -0.000591  -0.001404
  163  C 11 YZ   -0.001200   0.000084   0.000661   0.000673  -0.006013
  164  H 12  S   -0.000111   0.000026   0.000253   0.000318   0.061061
  165  H 12  S    0.003895  -0.003884   0.003630   0.003570  -0.005992
  166  H 12  X   -0.000076   0.000041  -0.000165  -0.000119   0.007969
  167  H 12  Y    0.000046   0.000019  -0.000061  -0.000043   0.000079
  168  H 12  Z    0.000021  -0.000035   0.000138   0.000166  -0.005377
  169  H 12  S    0.000550   0.000434   0.000447  -0.000685   0.010885
  170  H 12  X    0.000785  -0.001036   0.001180   0.001346  -0.008554
  171  H 12  Y    0.000220   0.000400  -0.000284  -0.000245   0.006968
  172  H 12  Z   -0.000425   0.000444  -0.000596  -0.000269  -0.007257
  173  H 13  S   -0.000122   0.000004   0.000381   0.000269   0.066408
  174  H 13  S    0.003210  -0.000923   0.003853   0.005483   0.003817
  175  H 13  X   -0.000078  -0.000010   0.000127   0.000112  -0.002540
  176  H 13  Y    0.000089   0.000010   0.000164   0.000153  -0.009342
  177  H 13  Z   -0.000014  -0.000008   0.000007   0.000013  -0.000142
  178  H 13  S    0.000472  -0.000166   0.000211   0.000008   0.002152
  179  H 13  X   -0.000575  -0.000233  -0.000088  -0.000430   0.000632
  180  H 13  Y   -0.000498  -0.000042  -0.001288  -0.001919  -0.001605
  181  H 13  Z   -0.000014   0.000155   0.000117   0.000210  -0.000080
  182  H 14  S    0.000006   0.000087   0.000272   0.000378   0.064947
  183  H 14  S    0.002909  -0.001539   0.004406   0.004005   0.022355
  184  H 14  X   -0.000065   0.000014  -0.000007   0.000013   0.002775
  185  H 14  Y    0.000014  -0.000006  -0.000098  -0.000087   0.002308
  186  H 14  Z   -0.000048   0.000021  -0.000159  -0.000166   0.008619
  187  H 14  S    0.000095  -0.000462   0.000234   0.000313   0.012523
  188  H 14  X    0.000100   0.000171   0.000765   0.000712  -0.003002
  189  H 14  Y    0.000191  -0.000363   0.000020  -0.000068   0.006246
  190  H 14  Z    0.000419  -0.000159   0.001570   0.001106   0.008441

                      6          7          8          9         10
                   -0.9794    -0.8696    -0.7843    -0.6224    -0.6143
                     A          A          A          A          A   
    1  C  1  S    0.014215  -0.009214   0.002542   0.001962   0.001768
    2  C  1  S   -0.243188   0.215668  -0.112497  -0.011802  -0.019206
    3  C  1  S   -0.024740   0.022720   0.010233   0.003716  -0.032728
    4  C  1  X    0.014260   0.049462  -0.056164  -0.176164  -0.057733
    5  C  1  Y    0.022050   0.047294  -0.074356   0.097941  -0.166531
    6  C  1  Z    0.012845   0.017784  -0.067985  -0.008465   0.111652
    7  C  1  X   -0.018298   0.029504  -0.049020  -0.047704  -0.002301
    8  C  1  Y   -0.007226   0.061698  -0.059397   0.029122  -0.041422
    9  C  1  Z   -0.001757   0.036601  -0.057075  -0.022558   0.003875
   10  C  1 XX   -0.000235  -0.001298   0.000905   0.003386  -0.005452
   11  C  1 YY   -0.001654  -0.001609   0.001950   0.003380   0.001922
   12  C  1 ZZ    0.001889   0.002907  -0.002855  -0.006766   0.003531
   13  C  1 XY   -0.005736  -0.006917   0.009130  -0.002045   0.009803
   14  C  1 XZ   -0.002844  -0.003487   0.006094   0.007496   0.005367
   15  C  1 YZ   -0.003672  -0.002773   0.008452   0.001051  -0.001091
   16  C  1  S   -0.025162   0.081717  -0.048048  -0.040490  -0.019757
   17  C  1  X    0.008949  -0.020419   0.008658   0.007261   0.008807
   18  C  1  Y    0.019090  -0.011212   0.004973   0.015312  -0.007129
   19  C  1  Z   -0.001801  -0.004721  -0.002122  -0.000337   0.016682
   20  C  1 XX    0.001109   0.005863  -0.012637  -0.011525   0.006678
   21  C  1 YY    0.007394  -0.005672   0.008126  -0.015651   0.002567
   22  C  1 ZZ   -0.008503  -0.000191   0.004511   0.027175  -0.009245
   23  C  1 XY    0.008141  -0.000899   0.009440   0.012845  -0.016163
   24  C  1 XZ   -0.009206  -0.007115   0.011048  -0.007367  -0.007142
   25  C  1 YZ   -0.002692  -0.006486   0.001736   0.006721   0.019815
   26  H  2  S   -0.116605   0.131647  -0.066753  -0.130381  -0.106485
   27  H  2  S   -0.023272   0.041666  -0.016524  -0.060854  -0.071763
   28  H  2  X    0.013179  -0.012840   0.006557   0.005555   0.006497
   29  H  2  Y   -0.000322   0.000842  -0.001339   0.002713  -0.004052
   30  H  2  Z   -0.008883   0.009595  -0.005592  -0.006271  -0.001560
   31  H  2  S   -0.000744   0.006830  -0.009372  -0.004495  -0.001547
   32  H  2  X    0.004592  -0.016891   0.014502   0.008502   0.006121
   33  H  2  Y   -0.006326  -0.006220   0.006258  -0.008935   0.008780
   34  H  2  Z   -0.007002   0.004792   0.004247   0.005824  -0.009575
   35  H  3  S   -0.109098   0.130913  -0.094900   0.126765  -0.125520
   36  H  3  S   -0.033461   0.001194  -0.025278   0.056172  -0.066209
   37  H  3  X   -0.005619   0.006829  -0.005556  -0.001442  -0.006001
   38  H  3  Y    0.014235  -0.014370   0.008619  -0.007018   0.006625
   39  H  3  Z   -0.000005   0.000106  -0.001270  -0.000017   0.002830
   40  H  3  S   -0.019631  -0.000924   0.003484  -0.010770   0.011069
   41  H  3  X   -0.012150  -0.001885  -0.006192   0.001963  -0.000889
   42  H  3  Y    0.009504   0.000919   0.009101   0.003730   0.009709
   43  H  3  Z   -0.003636  -0.000644   0.006230  -0.000190  -0.011096
   44  H  4  S   -0.113300   0.123565  -0.106015  -0.072041   0.100057
   45  H  4  S    0.018920   0.024272  -0.006732  -0.030425   0.079386
   46  H  4  X    0.004351  -0.002460   0.001856  -0.003203  -0.003173
   47  H  4  Y   -0.003191   0.004394  -0.004303   0.000726  -0.002619
   48  H  4  Z    0.014918  -0.014678   0.009409   0.005887  -0.003990
   49  H  4  S    0.006848   0.005255   0.003826  -0.000254  -0.021989
   50  H  4  X   -0.001621  -0.003062  -0.000416   0.003235  -0.003699
   51  H  4  Y   -0.000833  -0.000335   0.003082  -0.009372   0.005350
   52  H  4  Z   -0.005542  -0.008722   0.000365  -0.001881  -0.009067
   53  C  5  S    0.009687   0.005205  -0.005404   0.000051  -0.001434
   54  C  5  S   -0.137720  -0.153298   0.207829   0.015836   0.034920
   55  C  5  S   -0.041870  -0.000501   0.071144   0.053182   0.022348
   56  C  5  X   -0.083865   0.089767   0.043967  -0.123872   0.123709
   57  C  5  Y   -0.032709   0.072209  -0.041695   0.204075  -0.079003
   58  C  5  Z   -0.003776   0.001137  -0.117001   0.012418   0.180211
   59  C  5  X   -0.143136   0.097331  -0.063197  -0.062154   0.081904
   60  C  5  Y   -0.106211   0.062956   0.001663   0.073339  -0.004338
   61  C  5  Z    0.012822  -0.002089  -0.019105   0.021518   0.087560
   62  C  5 XX    0.002175  -0.002006  -0.007083  -0.001939  -0.002199
   63  C  5 YY   -0.005919   0.005287   0.004190  -0.007689   0.006800
   64  C  5 ZZ    0.003744  -0.003280   0.002892   0.009628  -0.004601
   65  C  5 XY   -0.010378   0.008723  -0.006916   0.003194  -0.005677
   66  C  5 XZ   -0.010958   0.012502   0.008271  -0.005417   0.000085
   67  C  5 YZ   -0.004560   0.006156  -0.004133   0.005784   0.008059
   68  C  5  S    0.036826  -0.077111   0.017155   0.053362  -0.045564
   69  C  5  X   -0.008391  -0.002906   0.010387   0.012408   0.023377
   70  C  5  Y   -0.008389  -0.014667   0.007614   0.010191   0.027732
   71  C  5  Z    0.012033  -0.011271  -0.000394   0.021534  -0.022544
   72  C  5 XX    0.002089   0.006362   0.014293  -0.018547  -0.011866
   73  C  5 YY    0.002250   0.010029  -0.012572   0.024020  -0.031028
   74  C  5 ZZ   -0.004339  -0.016392  -0.001721  -0.005474   0.042893
   75  C  5 XY   -0.000352   0.006180  -0.015177  -0.022100  -0.007736
   76  C  5 XZ   -0.034187   0.026433  -0.023625   0.005261   0.034684
   77  C  5 YZ   -0.028624  -0.007041   0.014820   0.006103   0.021884
   78  H  6  S   -0.072120  -0.099595   0.151428  -0.189941   0.135070
   79  H  6  S   -0.041280  -0.014772   0.100789  -0.097797   0.035076
   80  H  6  X    0.003704   0.004935  -0.005954   0.003994  -0.002166
   81  H  6  Y   -0.007831  -0.009577   0.014863  -0.009622   0.007202
   82  H  6  Z    0.000247   0.000367  -0.002969   0.000600   0.004620
   83  H  6  S    0.007706  -0.005390   0.004490  -0.002592   0.012848
   84  H  6  X    0.021443  -0.010887  -0.021854   0.007347   0.001925
   85  H  6  Y   -0.000843  -0.005759   0.021064  -0.002825  -0.018679
   86  H  6  Z   -0.003721  -0.003343   0.011403   0.003123  -0.006329
   87  H  7  S   -0.059746  -0.081299   0.184588   0.054349  -0.161629
   88  H  7  S    0.026098  -0.003746   0.061271   0.001298  -0.042303
   89  H  7  X   -0.002055  -0.000539   0.005193  -0.002670   0.001188
   90  H  7  Y    0.001563   0.002768  -0.004972   0.004826   0.001193
   91  H  7  Z   -0.008113  -0.009793   0.016573   0.003810  -0.007602
   92  H  7  S    0.007687  -0.007266   0.000645   0.013674  -0.022760
   93  H  7  X    0.003170  -0.001990  -0.000716   0.006045   0.007089
   94  H  7  Y    0.000224  -0.011547   0.001397  -0.008193   0.014451
   95  H  7  Z    0.009411  -0.001264   0.011349  -0.011920   0.020000
   96  C  8  S   -0.009687   0.005205   0.005404   0.000051   0.001434
   97  C  8  S    0.137721  -0.153298  -0.207829   0.015835  -0.034921
   98  C  8  S    0.041870  -0.000501  -0.071145   0.053182  -0.022350
   99  C  8  X   -0.083864  -0.089768   0.043967   0.123875   0.123706
  100  C  8  Y    0.032709   0.072208   0.041694   0.204078   0.078999
  101  C  8  Z   -0.003776  -0.001138  -0.117001  -0.012413   0.180210
  102  C  8  X   -0.143136  -0.097330  -0.063196   0.062157   0.081903
  103  C  8  Y    0.106211   0.062956  -0.001663   0.073340   0.004335
  104  C  8  Z    0.012821   0.002089  -0.019103  -0.021516   0.087560
  105  C  8 XX   -0.002175  -0.002006   0.007083  -0.001939   0.002200
  106  C  8 YY    0.005919   0.005287  -0.004190  -0.007689  -0.006800
  107  C  8 ZZ   -0.003744  -0.003280  -0.002892   0.009628   0.004600
  108  C  8 XY   -0.010378  -0.008723  -0.006916  -0.003194  -0.005677
  109  C  8 XZ    0.010958   0.012502  -0.008271  -0.005417  -0.000085
  110  C  8 YZ   -0.004560  -0.006156  -0.004133  -0.005784   0.008059
  111  C  8  S   -0.036825  -0.077109  -0.017154   0.053365   0.045566
  112  C  8  X   -0.008391   0.002906   0.010387  -0.012407   0.023377
  113  C  8  Y    0.008389  -0.014667  -0.007614   0.010189  -0.027731
  114  C  8  Z    0.012033   0.011271  -0.000395  -0.021535  -0.022544
  115  C  8 XX   -0.002090   0.006362  -0.014292  -0.018547   0.011865
  116  C  8 YY   -0.002250   0.010030   0.012572   0.024021   0.031027
  117  C  8 ZZ    0.004340  -0.016392   0.001720  -0.005475  -0.042892
  118  C  8 XY   -0.000352  -0.006180  -0.015177   0.022100  -0.007736
  119  C  8 XZ    0.034187   0.026432   0.023625   0.005260  -0.034685
  120  C  8 YZ   -0.028624   0.007041   0.014820  -0.006103   0.021884
  121  H  9  S    0.072120  -0.099595  -0.151428  -0.189945  -0.135065
  122  H  9  S    0.041280  -0.014773  -0.100789  -0.097800  -0.035075
  123  H  9  X    0.003704  -0.004935  -0.005954  -0.003994  -0.002166
  124  H  9  Y    0.007831  -0.009577  -0.014863  -0.009622  -0.007202
  125  H  9  Z    0.000246  -0.000367  -0.002969  -0.000600   0.004620
  126  H  9  S   -0.007706  -0.005390  -0.004490  -0.002592  -0.012847
  127  H  9  X    0.021443   0.010887  -0.021854  -0.007347   0.001925
  128  H  9  Y    0.000843  -0.005759  -0.021065  -0.002825   0.018679
  129  H  9  Z   -0.003721   0.003343   0.011404  -0.003124  -0.006328
  130  H 10  S    0.059746  -0.081299  -0.184587   0.054354   0.161627
  131  H 10  S   -0.026098  -0.003746  -0.061270   0.001298   0.042301
  132  H 10  X   -0.002055   0.000539   0.005193   0.002670   0.001187
  133  H 10  Y   -0.001563   0.002768   0.004973   0.004826  -0.001193
  134  H 10  Z   -0.008113   0.009793   0.016573  -0.003811  -0.007602
  135  H 10  S   -0.007687  -0.007266  -0.000645   0.013675   0.022760
  136  H 10  X    0.003170   0.001990  -0.000716  -0.006045   0.007089
  137  H 10  Y   -0.000224  -0.011548  -0.001397  -0.008193  -0.014451
  138  H 10  Z    0.009411   0.001264   0.011349   0.011921   0.020000
  139  C 11  S   -0.014215  -0.009214  -0.002542   0.001961  -0.001768
  140  C 11  S    0.243188   0.215668   0.112497  -0.011801   0.019206
  141  C 11  S    0.024740   0.022721  -0.010233   0.003718   0.032728
  142  C 11  X    0.014260  -0.049462  -0.056164   0.176163  -0.057737
  143  C 11  Y   -0.022050   0.047294   0.074356   0.097945   0.166528
  144  C 11  Z    0.012846  -0.017784  -0.067985   0.008468   0.111650
  145  C 11  X   -0.018298  -0.029504  -0.049020   0.047705  -0.002301
  146  C 11  Y    0.007225   0.061697   0.059397   0.029122   0.041421
  147  C 11  Z   -0.001757  -0.036602  -0.057075   0.022558   0.003875
  148  C 11 XX    0.000235  -0.001298  -0.000905   0.003386   0.005452
  149  C 11 YY    0.001654  -0.001609  -0.001950   0.003380  -0.001922
  150  C 11 ZZ   -0.001889   0.002907   0.002855  -0.006766  -0.003530
  151  C 11 XY   -0.005736   0.006917   0.009130   0.002045   0.009802
  152  C 11 XZ    0.002844  -0.003487  -0.006094   0.007496  -0.005367
  153  C 11 YZ   -0.003672   0.002773   0.008452  -0.001051  -0.001091
  154  C 11  S    0.025161   0.081716   0.048047  -0.040488   0.019754
  155  C 11  X    0.008948   0.020419   0.008658  -0.007260   0.008806
  156  C 11  Y   -0.019090  -0.011211  -0.004972   0.015312   0.007130
  157  C 11  Z   -0.001801   0.004721  -0.002122   0.000338   0.016682
  158  C 11 XX   -0.001109   0.005863   0.012637  -0.011526  -0.006678
  159  C 11 YY   -0.007394  -0.005672  -0.008126  -0.015650  -0.002566
  160  C 11 ZZ    0.008502  -0.000191  -0.004511   0.027176   0.009244
  161  C 11 XY    0.008141   0.000898   0.009440  -0.012845  -0.016162
  162  C 11 XZ    0.009206  -0.007116  -0.011048  -0.007366   0.007143
  163  C 11 YZ   -0.002692   0.006486   0.001736  -0.006721   0.019815
  164  H 12  S    0.116605   0.131647   0.066753  -0.130378   0.106489
  165  H 12  S    0.023272   0.041666   0.016523  -0.060850   0.071767
  166  H 12  X    0.013179   0.012840   0.006557  -0.005555   0.006497
  167  H 12  Y    0.000322   0.000842   0.001338   0.002713   0.004052
  168  H 12  Z   -0.008883  -0.009595  -0.005592   0.006271  -0.001560
  169  H 12  S    0.000744   0.006830   0.009372  -0.004495   0.001547
  170  H 12  X    0.004592   0.016891   0.014502  -0.008502   0.006122
  171  H 12  Y    0.006326  -0.006220  -0.006258  -0.008936  -0.008780
  172  H 12  Z   -0.007002  -0.004792   0.004247  -0.005825  -0.009575
  173  H 13  S    0.109098   0.130913   0.094900   0.126769   0.125515
  174  H 13  S    0.033462   0.001194   0.025279   0.056173   0.066206
  175  H 13  X   -0.005620  -0.006829  -0.005556   0.001442  -0.006001
  176  H 13  Y   -0.014235  -0.014370  -0.008619  -0.007018  -0.006625
  177  H 13  Z   -0.000005  -0.000106  -0.001270   0.000017   0.002830
  178  H 13  S    0.019631  -0.000924  -0.003484  -0.010771  -0.011069
  179  H 13  X   -0.012150   0.001885  -0.006192  -0.001963  -0.000889
  180  H 13  Y   -0.009504   0.000919  -0.009102   0.003730  -0.009709
  181  H 13  Z   -0.003636   0.000644   0.006230   0.000189  -0.011095
  182  H 14  S    0.113300   0.123565   0.106015  -0.072045  -0.100054
  183  H 14  S   -0.018920   0.024272   0.006732  -0.030428  -0.079384
  184  H 14  X    0.004352   0.002460   0.001856   0.003203  -0.003173
  185  H 14  Y    0.003191   0.004394   0.004303   0.000726   0.002619
  186  H 14  Z    0.014917   0.014678   0.009409  -0.005887  -0.003990
  187  H 14  S   -0.006848   0.005254  -0.003826  -0.000253   0.021989
  188  H 14  X   -0.001621   0.003062  -0.000416  -0.003236  -0.003698
  189  H 14  Y    0.000833  -0.000335  -0.003082  -0.009372  -0.005350
  190  H 14  Z   -0.005543   0.008722   0.000365   0.001881  -0.009067

                     11         12         13         14         15
                   -0.5770    -0.5397    -0.5203    -0.5061    -0.4668
                     A          A          A          A          A   
    1  C  1  S   -0.000062   0.000586   0.000496   0.001150  -0.000119
    2  C  1  S   -0.006669  -0.007221  -0.015455  -0.011674  -0.031579
    3  C  1  S   -0.028167  -0.011759  -0.069976  -0.065032  -0.083708
    4  C  1  X    0.036784   0.273553   0.025082   0.085417   0.113148
    5  C  1  Y    0.014566  -0.114702   0.275024   0.030269   0.040951
    6  C  1  Z   -0.250856  -0.070783  -0.009446   0.264672   0.152562
    7  C  1  X    0.017400   0.080673   0.062559   0.079711   0.095252
    8  C  1  Y    0.009300   0.006328   0.087944   0.042794   0.086399
    9  C  1  Z   -0.063396   0.013768   0.020024   0.066080   0.040189
   10  C  1 XX    0.006563   0.009253  -0.006282  -0.011039  -0.007056
   11  C  1 YY   -0.000587  -0.016356   0.014920  -0.006734  -0.010942
   12  C  1 ZZ   -0.005977   0.007103  -0.008638   0.017773   0.017998
   13  C  1 XY    0.001102   0.001673  -0.014931  -0.009269  -0.008868
   14  C  1 XZ   -0.006246  -0.014843  -0.008256   0.009054   0.006547
   15  C  1 YZ    0.010064  -0.001825  -0.002557  -0.007309  -0.002816
   16  C  1  S   -0.026978  -0.039512   0.099886   0.014560   0.162735
   17  C  1  X    0.004605   0.005417  -0.011800   0.009440  -0.035713
   18  C  1  Y    0.007261   0.004832  -0.013728   0.008456  -0.012683
   19  C  1  Z   -0.001378   0.017390  -0.006014  -0.005801  -0.007935
   20  C  1 XX   -0.011157  -0.012547  -0.000708   0.008115   0.003099
   21  C  1 YY   -0.000557   0.025183  -0.013163  -0.002875  -0.000963
   22  C  1 ZZ    0.011714  -0.012636   0.013871  -0.005239  -0.002136
   23  C  1 XY    0.006819  -0.019672   0.014037  -0.005314  -0.012879
   24  C  1 XZ    0.011268   0.031109  -0.008027  -0.015691  -0.010074
   25  C  1 YZ   -0.021951  -0.011924  -0.011296   0.013581   0.005961
   26  H  2  S    0.148204   0.247352   0.009172  -0.086802  -0.015863
   27  H  2  S    0.087495   0.233346  -0.044490  -0.128902  -0.085311
   28  H  2  X   -0.009510  -0.008791  -0.001081   0.007491   0.003866
   29  H  2  Y    0.000455  -0.003926   0.008032   0.000647   0.001301
   30  H  2  Z   -0.000034   0.008220   0.000184   0.005147   0.004992
   31  H  2  S   -0.003326   0.010771   0.007458  -0.011355   0.012178
   32  H  2  X   -0.001510  -0.034194   0.010016   0.018285   0.017991
   33  H  2  Y   -0.004209   0.004942  -0.010625   0.000955   0.001340
   34  H  2  Z    0.009825   0.018490  -0.006691  -0.017051  -0.011668
   35  H  3  S   -0.001996  -0.193018   0.231262  -0.011983  -0.028670
   36  H  3  S    0.009654  -0.204877   0.229159  -0.006715  -0.082852
   37  H  3  X    0.001185   0.001881   0.006245   0.002359   0.003077
   38  H  3  Y    0.001127   0.010974  -0.010010   0.000926   0.002806
   39  H  3  Z   -0.007127  -0.001900  -0.000731   0.008265   0.005021
   40  H  3  S   -0.001769  -0.005143   0.013016  -0.009115  -0.004273
   41  H  3  X   -0.003011  -0.016988   0.005776  -0.004590  -0.006362
   42  H  3  Y   -0.000749   0.034844  -0.048221  -0.003052   0.020876
   43  H  3  Z    0.013481   0.006082   0.000377  -0.007387  -0.005765
   44  H  4  S   -0.207843   0.021086  -0.077079   0.245867   0.155118
   45  H  4  S   -0.136359  -0.028998  -0.081164   0.225831   0.173165
   46  H  4  X    0.005886   0.006797   0.001994  -0.003554  -0.000622
   47  H  4  Y   -0.003613  -0.003101   0.007598   0.004449   0.002165
   48  H  4  Z    0.010076  -0.004447   0.004491  -0.011391  -0.005626
   49  H  4  S    0.000397  -0.010780  -0.000729   0.015090   0.019042
   50  H  4  X    0.004852  -0.012365   0.001347  -0.012349  -0.014271
   51  H  4  Y   -0.002837   0.007241  -0.008417   0.000615  -0.000860
   52  H  4  Z    0.018065   0.015066   0.009515  -0.041087  -0.034609
   53  C  5  S   -0.001037   0.001224  -0.000570  -0.000528   0.000113
   54  C  5  S    0.003130  -0.038974  -0.017165  -0.001633  -0.021723
   55  C  5  S   -0.024133  -0.006139  -0.037178  -0.028417  -0.090333
   56  C  5  X    0.110327  -0.012737  -0.087667  -0.111241  -0.076219
   57  C  5  Y    0.066890  -0.078424  -0.198908  -0.081536  -0.001377
   58  C  5  Z   -0.163102  -0.021873  -0.024577  -0.153463  -0.263766
   59  C  5  X    0.079389   0.051591  -0.075363  -0.056212   0.016997
   60  C  5  Y    0.044387  -0.071837  -0.050466  -0.030970  -0.025420
   61  C  5  Z   -0.067364  -0.050439  -0.045846  -0.026721  -0.030896
   62  C  5 XX   -0.006707   0.009943  -0.008813  -0.001508  -0.018523
   63  C  5 YY    0.002114  -0.006952   0.010398  -0.006861  -0.012649
   64  C  5 ZZ    0.004593  -0.002991  -0.001584   0.008370   0.031172
   65  C  5 XY    0.002755  -0.006594  -0.004673  -0.013446  -0.006959
   66  C  5 XZ    0.002986  -0.002873  -0.010526   0.008936   0.002825
   67  C  5 YZ   -0.005037  -0.005329  -0.008140  -0.001098  -0.007473
   68  C  5  S    0.012802   0.144785  -0.114377  -0.075753  -0.178904
   69  C  5  X    0.014526  -0.017102  -0.036278   0.010002  -0.016756
   70  C  5  Y    0.002832   0.034957  -0.031565  -0.024032  -0.056989
   71  C  5  Z    0.000046   0.012490  -0.029730  -0.011546  -0.040974
   72  C  5 XX    0.021130   0.002876   0.004145   0.002154   0.009517
   73  C  5 YY    0.010188  -0.015323   0.003412   0.001002   0.010821
   74  C  5 ZZ   -0.031318   0.012447  -0.007557  -0.003156  -0.020339
   75  C  5 XY    0.017692   0.028169   0.014850  -0.016199   0.013811
   76  C  5 XZ   -0.008294   0.006662  -0.006449   0.005447  -0.000907
   77  C  5 YZ    0.018304  -0.021324   0.001856   0.020196   0.036207
   78  H  6  S   -0.016808   0.033794   0.131120   0.023870  -0.057804
   79  H  6  S   -0.007501  -0.013775   0.155550  -0.000448  -0.088140
   80  H  6  X    0.003005  -0.001771  -0.005246  -0.004968  -0.000566
   81  H  6  Y    0.000296  -0.000471   0.005651  -0.000292  -0.003069
   82  H  6  Z   -0.003760  -0.001148  -0.000368  -0.004657  -0.008327
   83  H  6  S    0.001078   0.024002  -0.006336  -0.006483  -0.027979
   84  H  6  X    0.002532  -0.000629   0.002647  -0.001217   0.011415
   85  H  6  Y    0.001168  -0.014776   0.037656  -0.001302  -0.022480
   86  H  6  Z    0.015824  -0.010671   0.004511   0.007922   0.014338
   87  H  7  S    0.130263  -0.017481  -0.012246   0.141101   0.271879
   88  H  7  S    0.128734  -0.091085  -0.048007   0.153758   0.385689
   89  H  7  X    0.003984  -0.001714  -0.002835   0.001285   0.000745
   90  H  7  Y   -0.000592  -0.001086  -0.005971  -0.004048  -0.002244
   91  H  7  Z    0.006852  -0.002193  -0.001957   0.007880   0.012311
   92  H  7  S    0.006463  -0.000100  -0.009976   0.001331   0.001014
   93  H  7  X   -0.010408  -0.006816   0.000194   0.015803   0.012724
   94  H  7  Y   -0.005580  -0.001093   0.002383   0.005867   0.002054
   95  H  7  Z    0.024797  -0.022520  -0.021219   0.032615   0.080656
   96  C  8  S   -0.001037  -0.001224  -0.000570   0.000528   0.000113
   97  C  8  S    0.003130   0.038974  -0.017165   0.001632  -0.021723
   98  C  8  S   -0.024133   0.006138  -0.037177   0.028416  -0.090334
   99  C  8  X   -0.110326  -0.012737   0.087668  -0.111240   0.076221
  100  C  8  Y    0.066891   0.078425  -0.198909   0.081535  -0.001376
  101  C  8  Z    0.163102  -0.021873   0.024578  -0.153461   0.263767
  102  C  8  X   -0.079389   0.051591   0.075363  -0.056212  -0.016995
  103  C  8  Y    0.044387   0.071837  -0.050464   0.030970  -0.025420
  104  C  8  Z    0.067366  -0.050439   0.045847  -0.026722   0.030897
  105  C  8 XX   -0.006707  -0.009943  -0.008813   0.001508  -0.018523
  106  C  8 YY    0.002114   0.006952   0.010398   0.006861  -0.012649
  107  C  8 ZZ    0.004593   0.002991  -0.001584  -0.008369   0.031172
  108  C  8 XY   -0.002755  -0.006594   0.004673  -0.013446   0.006959
  109  C  8 XZ    0.002986   0.002873  -0.010526  -0.008936   0.002825
  110  C  8 YZ    0.005038  -0.005329   0.008139  -0.001098   0.007474
  111  C  8  S    0.012808  -0.144782  -0.114377   0.075749  -0.178908
  112  C  8  X   -0.014525  -0.017103   0.036279   0.010002   0.016755
  113  C  8  Y    0.002833  -0.034957  -0.031565   0.024031  -0.056990
  114  C  8  Z   -0.000047   0.012488   0.029730  -0.011545   0.040975
  115  C  8 XX    0.021129  -0.002875   0.004145  -0.002153   0.009518
  116  C  8 YY    0.010188   0.015323   0.003411  -0.001002   0.010821
  117  C  8 ZZ   -0.031318  -0.012448  -0.007557   0.003155  -0.020338
  118  C  8 XY   -0.017693   0.028169  -0.014850  -0.016199  -0.013810
  119  C  8 XZ   -0.008294  -0.006662  -0.006449  -0.005446  -0.000907
  120  C  8 YZ   -0.018304  -0.021324  -0.001856   0.020196  -0.036208
  121  H  9  S   -0.016808  -0.033795   0.131121  -0.023871  -0.057805
  122  H  9  S   -0.007501   0.013773   0.155553   0.000446  -0.088140
  123  H  9  X   -0.003005  -0.001771   0.005246  -0.004968   0.000566
  124  H  9  Y    0.000296   0.000471   0.005651   0.000292  -0.003069
  125  H  9  Z    0.003760  -0.001148   0.000368  -0.004656   0.008327
  126  H  9  S    0.001079  -0.024003  -0.006336   0.006483  -0.027979
  127  H  9  X   -0.002532  -0.000628  -0.002647  -0.001217  -0.011415
  128  H  9  Y    0.001168   0.014776   0.037657   0.001301  -0.022480
  129  H  9  Z   -0.015824  -0.010671  -0.004512   0.007922  -0.014338
  130  H 10  S    0.130264   0.017480  -0.012247  -0.141098   0.271882
  131  H 10  S    0.128731   0.091086  -0.048009  -0.153752   0.385691
  132  H 10  X   -0.003984  -0.001714   0.002835   0.001285  -0.000745
  133  H 10  Y   -0.000592   0.001086  -0.005971   0.004048  -0.002244
  134  H 10  Z   -0.006852  -0.002193   0.001957   0.007879  -0.012311
  135  H 10  S    0.006463   0.000101  -0.009976  -0.001332   0.001014
  136  H 10  X    0.010408  -0.006816  -0.000194   0.015803  -0.012724
  137  H 10  Y   -0.005581   0.001093   0.002384  -0.005867   0.002053
  138  H 10  Z   -0.024796  -0.022521   0.021220   0.032613  -0.080656
  139  C 11  S   -0.000062  -0.000586   0.000496  -0.001150  -0.000119
  140  C 11  S   -0.006669   0.007221  -0.015455   0.011674  -0.031579
  141  C 11  S   -0.028166   0.011759  -0.069977   0.065031  -0.083708
  142  C 11  X   -0.036783   0.273553  -0.025080   0.085416  -0.113149
  143  C 11  Y    0.014567   0.114700   0.275026  -0.030269   0.040951
  144  C 11  Z    0.250857  -0.070784   0.009446   0.264670  -0.152566
  145  C 11  X   -0.017399   0.080673  -0.062560   0.079710  -0.095252
  146  C 11  Y    0.009299  -0.006329   0.087945  -0.042793   0.086400
  147  C 11  Z    0.063396   0.013768  -0.020024   0.066079  -0.040189
  148  C 11 XX    0.006563  -0.009253  -0.006282   0.011038  -0.007056
  149  C 11 YY   -0.000587   0.016356   0.014920   0.006734  -0.010942
  150  C 11 ZZ   -0.005977  -0.007103  -0.008638  -0.017773   0.017998
  151  C 11 XY   -0.001102   0.001673   0.014931  -0.009269   0.008869
  152  C 11 XZ   -0.006246   0.014843  -0.008256  -0.009054   0.006547
  153  C 11 YZ   -0.010064  -0.001826   0.002557  -0.007309   0.002816
  154  C 11  S   -0.026979   0.039510   0.099887  -0.014556   0.162736
  155  C 11  X   -0.004605   0.005417   0.011800   0.009441   0.035713
  156  C 11  Y    0.007261  -0.004831  -0.013728  -0.008456  -0.012683
  157  C 11  Z    0.001378   0.017390   0.006014  -0.005801   0.007935
  158  C 11 XX   -0.011158   0.012546  -0.000708  -0.008115   0.003099
  159  C 11 YY   -0.000556  -0.025182  -0.013163   0.002876  -0.000964
  160  C 11 ZZ    0.011714   0.012636   0.013871   0.005239  -0.002136
  161  C 11 XY   -0.006818  -0.019672  -0.014037  -0.005313   0.012879
  162  C 11 XZ    0.011269  -0.031109  -0.008027   0.015692  -0.010074
  163  C 11 YZ    0.021951  -0.011923   0.011297   0.013581  -0.005962
  164  H 12  S    0.148206  -0.247351   0.009172   0.086803  -0.015865
  165  H 12  S    0.087498  -0.233344  -0.044490   0.128902  -0.085314
  166  H 12  X    0.009510  -0.008790   0.001081   0.007491  -0.003866
  167  H 12  Y    0.000455   0.003926   0.008032  -0.000648   0.001301
  168  H 12  Z    0.000034   0.008220  -0.000184   0.005147  -0.004992
  169  H 12  S   -0.003326  -0.010771   0.007458   0.011355   0.012178
  170  H 12  X    0.001511  -0.034194  -0.010016   0.018285  -0.017992
  171  H 12  Y   -0.004209  -0.004941  -0.010625  -0.000955   0.001340
  172  H 12  Z   -0.009825   0.018490   0.006692  -0.017051   0.011668
  173  H 13  S   -0.001997   0.193017   0.231264   0.011981  -0.028670
  174  H 13  S    0.009654   0.204877   0.229161   0.006711  -0.082852
  175  H 13  X   -0.001185   0.001881  -0.006245   0.002359  -0.003077
  176  H 13  Y    0.001127  -0.010974  -0.010010  -0.000926   0.002806
  177  H 13  Z    0.007127  -0.001900   0.000732   0.008265  -0.005021
  178  H 13  S   -0.001769   0.005143   0.013016   0.009115  -0.004273
  179  H 13  X    0.003011  -0.016988  -0.005776  -0.004590   0.006362
  180  H 13  Y   -0.000749  -0.034844  -0.048222   0.003053   0.020876
  181  H 13  Z   -0.013481   0.006082  -0.000377  -0.007387   0.005765
  182  H 14  S   -0.207843  -0.021087  -0.077081  -0.245864   0.155122
  183  H 14  S   -0.136361   0.028996  -0.081167  -0.225829   0.173169
  184  H 14  X   -0.005886   0.006797  -0.001994  -0.003555   0.000622
  185  H 14  Y   -0.003613   0.003101   0.007598  -0.004449   0.002165
  186  H 14  Z   -0.010076  -0.004447  -0.004491  -0.011390   0.005626
  187  H 14  S    0.000396   0.010780  -0.000729  -0.015089   0.019043
  188  H 14  X   -0.004852  -0.012365  -0.001347  -0.012349   0.014272
  189  H 14  Y   -0.002837  -0.007241  -0.008417  -0.000615  -0.000860
  190  H 14  Z   -0.018066   0.015065  -0.009515  -0.041087   0.034610

                     16         17         18         19         20
                   -0.4549    -0.4537     0.0384     0.0461     0.0491
                     A          A          A          A          A   
    1  C  1  S    0.000724   0.000781  -0.012997   0.000528  -0.002905
    2  C  1  S   -0.016300  -0.031172   0.012015  -0.021868   0.015999
    3  C  1  S   -0.012722  -0.074264   0.578029  -0.063559   0.244234
    4  C  1  X    0.202111   0.058365   0.022672  -0.029941  -0.004439
    5  C  1  Y    0.016927   0.211337   0.020314  -0.004690   0.026114
    6  C  1  Z   -0.059153  -0.015065   0.011701   0.009137  -0.004498
    7  C  1  X    0.066549   0.093272   0.239173  -0.468015   0.044048
    8  C  1  Y    0.048791   0.104297   0.170993  -0.215591   0.290999
    9  C  1  Z    0.011761   0.025401   0.077511   0.113263   0.074799
   10  C  1 XX    0.016655  -0.007275  -0.002176  -0.001645   0.000175
   11  C  1 YY   -0.016087   0.015883   0.000075   0.001975   0.000592
   12  C  1 ZZ   -0.000568  -0.008608   0.002101  -0.000330  -0.000766
   13  C  1 XY    0.000595  -0.010826  -0.002016   0.001888  -0.004306
   14  C  1 XZ   -0.014580  -0.010566  -0.000584   0.004945  -0.002730
   15  C  1 YZ   -0.007115  -0.000715  -0.000371   0.000611  -0.002111
   16  C  1  S   -0.021918   0.032276   4.064755  -1.019450  -1.278196
   17  C  1  X    0.004297   0.000226  -0.279626  -1.200442   0.815530
   18  C  1  Y    0.012099  -0.008386  -0.307850  -0.328879   0.906147
   19  C  1  Z    0.009158   0.015267  -0.076881   0.669862   0.114131
   20  C  1 XX   -0.008966  -0.013864   0.000836  -0.014101   0.016274
   21  C  1 YY    0.011438  -0.011208  -0.026129   0.050228  -0.014360
   22  C  1 ZZ   -0.002472   0.025072   0.025294  -0.036127  -0.001914
   23  C  1 XY   -0.007772  -0.004951  -0.053655   0.076866  -0.038493
   24  C  1 XZ    0.013867   0.000960  -0.031946   0.061889  -0.029495
   25  C  1 YZ   -0.011957  -0.002178  -0.029127   0.014685  -0.032911
   26  H  2  S    0.200873   0.031911   0.000786  -0.009739   0.005231
   27  H  2  S    0.219079  -0.000411  -0.670606   0.834365  -0.134908
   28  H  2  X   -0.006997  -0.000987  -0.000011  -0.000370  -0.001500
   29  H  2  Y   -0.000771   0.006748  -0.000628   0.001359  -0.000407
   30  H  2  Z    0.005521   0.001280  -0.000644   0.000241   0.000106
   31  H  2  S    0.020070  -0.000578  -0.739794   3.104540  -0.964993
   32  H  2  X   -0.034204   0.005502   0.108394  -0.136244   0.022296
   33  H  2  Y   -0.002265  -0.002134   0.016580  -0.014735  -0.035646
   34  H  2  Z    0.018260   0.004131  -0.065286   0.093724  -0.026022
   35  H  3  S   -0.080555   0.164289   0.010174  -0.000335   0.006690
   36  H  3  S   -0.139591   0.166981  -0.477700   0.030419  -0.570530
   37  H  3  X    0.005070   0.004203   0.000736  -0.000762  -0.002035
   38  H  3  Y    0.005077  -0.005825   0.000281   0.001683  -0.002453
   39  H  3  Z   -0.001774  -0.001223   0.000269  -0.000334  -0.000948
   40  H  3  S   -0.013634   0.021631  -0.141814  -0.047129  -1.680082
   41  H  3  X   -0.011057   0.003735  -0.022746   0.027395   0.008439
   42  H  3  Y    0.027808  -0.030974   0.083739   0.009114   0.157130
   43  H  3  Z    0.006089  -0.002960   0.002427  -0.012026   0.011898
   44  H  4  S   -0.024442  -0.076575   0.009303  -0.000618  -0.003198
   45  H  4  S   -0.050389  -0.156330  -0.542809  -0.050485  -0.084540
   46  H  4  X    0.006535   0.003009   0.000262   0.001240  -0.000581
   47  H  4  Y   -0.000184   0.005444  -0.000495  -0.000217  -0.000209
   48  H  4  Z   -0.000717   0.004470   0.000369   0.003689  -0.000958
   49  H  4  S   -0.012179  -0.020169  -0.517940  -0.424243  -0.338990
   50  H  4  X   -0.002446   0.012176   0.011566   0.054737   0.011183
   51  H  4  Y    0.000391  -0.008866  -0.008160   0.017025  -0.022953
   52  H  4  Z    0.010597   0.032193   0.091210  -0.000260   0.008071
   53  C  5  S   -0.001308   0.000368  -0.010673   0.002343   0.000631
   54  C  5  S    0.030608  -0.008278   0.000025  -0.007472  -0.016813
   55  C  5  S    0.070493  -0.044842   0.403483  -0.063853  -0.017109
   56  C  5  X   -0.309520   0.004913   0.004859   0.006634  -0.023192
   57  C  5  Y    0.024018  -0.264914  -0.029204   0.020468   0.019334
   58  C  5  Z    0.116803   0.026714  -0.032637   0.016204  -0.001699
   59  C  5  X   -0.165542  -0.004586   0.126447  -0.436701   0.023200
   60  C  5  Y   -0.009552  -0.027464  -0.022000  -0.244539   0.282700
   61  C  5  Z    0.063609  -0.013768  -0.035231  -0.005499  -0.054402
   62  C  5 XX    0.016703  -0.006601  -0.002024  -0.000232  -0.001053
   63  C  5 YY   -0.018593   0.016849   0.000533  -0.003203  -0.001707
   64  C  5 ZZ    0.001891  -0.010248   0.001491   0.003435   0.002760
   65  C  5 XY   -0.000581  -0.025713   0.002720  -0.001652   0.004694
   66  C  5 XZ   -0.020276  -0.008666   0.000803  -0.005848   0.000648
   67  C  5 YZ   -0.003681   0.001238  -0.000699  -0.000696   0.004026
   68  C  5  S    0.025160  -0.131588  -0.593931   4.115473   1.284207
   69  C  5  X   -0.003217   0.014951  -0.251327  -2.202643   0.285633
   70  C  5  Y    0.004652   0.018173  -0.803918   0.692998   1.679172
   71  C  5  Z    0.025240  -0.038185  -0.621440   1.041088   0.819690
   72  C  5 XX    0.021020  -0.002479   0.010109   0.007736   0.057603
   73  C  5 YY   -0.003993  -0.031952  -0.002884  -0.021563  -0.016613
   74  C  5 ZZ   -0.017027   0.034432  -0.007225   0.013827  -0.040990
   75  C  5 XY   -0.011188   0.007049  -0.006235   0.001526   0.017802
   76  C  5 XZ   -0.002638   0.017976   0.015294  -0.093595   0.050944
   77  C  5 YZ   -0.009812   0.023431  -0.004223  -0.099190  -0.082691
   78  H  6  S   -0.126392   0.254627   0.004429  -0.009950  -0.004016
   79  H  6  S   -0.127879   0.333847  -0.308604  -0.058057   0.387096
   80  H  6  X   -0.004878  -0.007318  -0.001218   0.003224  -0.001777
   81  H  6  Y   -0.008671   0.009197   0.001294  -0.000230  -0.000691
   82  H  6  Z    0.003353   0.001325  -0.001167   0.000684  -0.001382
   83  H  6  S   -0.005064   0.027347  -1.103954   1.640591   2.674329
   84  H  6  X    0.004679  -0.027500  -0.019375   0.079343  -0.068856
   85  H  6  Y   -0.024501   0.053833  -0.072775   0.012493   0.064365
   86  H  6  Z   -0.004787   0.006312  -0.010258  -0.048708  -0.057687
   87  H  7  S   -0.031583  -0.090533   0.016499   0.000706  -0.000712
   88  H  7  S    0.021729  -0.151866  -0.215064  -0.121656  -0.286907
   89  H  7  X   -0.008535  -0.001192   0.000374   0.001240  -0.001076
   90  H  7  Y    0.001198  -0.007135  -0.001281   0.001736   0.000752
   91  H  7  Z    0.000854  -0.004324   0.001437  -0.003084  -0.002636
   92  H  7  S    0.012256  -0.027381  -0.375287   0.812919   0.408075
   93  H  7  X    0.006381  -0.004701  -0.012350   0.008497   0.022167
   94  H  7  Y   -0.006357   0.016104  -0.012707  -0.018806  -0.140268
[...]
    5             0.263306   0.068708   0.207778   0.200349   0.206863
    6            -0.003761   0.005476   0.094690   0.001008   0.000631
    7             0.089017  -0.002530  -0.003192   0.094671   0.424974
    8             0.263308   0.068709   0.207779   0.200346   0.206868
    9            -0.003761   0.005476   0.094691   0.001009   0.000630
   10             0.089016  -0.002530  -0.003192   0.094666   0.424980
   11             0.319037   0.399673   0.371409   0.355419   0.225139
   12             0.111920   0.345949  -0.004734   0.038551   0.000184
   13            -0.006330   0.194304   0.307182  -0.002134  -0.002791
   14             0.226814  -0.011584   0.026874   0.312131   0.145000

                     16         17

                  2.000000   2.000000

    1             0.190278   0.226034
    2             0.200361   0.004396
    3             0.038276   0.137450
    4             0.002904   0.019356
    5             0.481449   0.245839
    6             0.086439   0.331193
    7             0.000257   0.035773
    8             0.481453   0.245832
    9             0.086569   0.331059
   10             0.000240   0.035789
   11             0.190210   0.226102
   12             0.200333   0.004425
   13             0.038335   0.137389
   14             0.002897   0.019362

               ----- POPULATIONS IN EACH AO -----
                             MULLIKEN      LOWDIN
              1  C  1  S      2.00788     1.81575
              2  C  1  S      0.65368     0.42053
              3  C  1  S      0.05537     0.18221
              4  C  1  X      0.67988     0.58052
              5  C  1  Y      0.68042     0.58218
              6  C  1  Z      0.68083     0.57947
              7  C  1  X      0.23155     0.29028
              8  C  1  Y      0.25221     0.30156
              9  C  1  Z      0.17580     0.31169
             10  C  1 XX      0.01605     0.11182
             11  C  1 YY      0.01659     0.12070
             12  C  1 ZZ      0.01286     0.11490
             13  C  1 XY      0.01543     0.02420
             14  C  1 XZ      0.00534     0.03124
             15  C  1 YZ      0.00000     0.00998
             16  C  1  S      0.23187     0.04992
             17  C  1  X      0.02088     0.03723
             18  C  1  Y      0.00991     0.03028
             19  C  1  Z      0.00623     0.02945
             20  C  1 XX     -0.01755     0.06915
             21  C  1 YY     -0.01886     0.09210
             22  C  1 ZZ     -0.00640     0.06279
             23  C  1 XY     -0.01215     0.05301
             24  C  1 XZ     -0.00142     0.08041
             25  C  1 YZ      0.00000     0.03403
             26  H  2  S      0.77630     0.53825
             27  H  2  S      0.34777     0.15790
             28  H  2  X      0.01535     0.02805
             29  H  2  Y      0.00494     0.01329
             30  H  2  Z      0.00958     0.01984
             31  H  2  S      0.01872     0.02019
             32  H  2  X     -0.02159     0.07122
             33  H  2  Y     -0.02058     0.05735
             34  H  2  Z     -0.01423     0.06700
             35  H  3  S      0.77592     0.54238
             36  H  3  S      0.35145     0.15660
             37  H  3  X      0.00670     0.01579
             38  H  3  Y      0.01792     0.03246
             39  H  3  Z      0.00522     0.01337
             40  H  3  S      0.01224     0.02146
             41  H  3  X     -0.00510     0.06350
             42  H  3  Y     -0.02683     0.07783
             43  H  3  Z     -0.02215     0.05982
             44  H  4  S      0.77566     0.54108
             45  H  4  S      0.30852     0.15549
             46  H  4  X      0.00574     0.01486
             47  H  4  Y      0.00566     0.01418
             48  H  4  Z      0.01835     0.03274
             49  H  4  S      0.01086     0.02082
             50  H  4  X     -0.01340     0.05740
             51  H  4  Y     -0.01562     0.05837
             52  H  4  Z     -0.03117     0.08440
             53  C  5  S      2.00858     1.81463
             54  C  5  S      0.64812     0.41541
             55  C  5  S      0.19080     0.17081
             56  C  5  X      0.67367     0.57776
             57  C  5  Y      0.67926     0.57691
             58  C  5  Z      0.67625     0.57671
             59  C  5  X      0.43542     0.24914
             60  C  5  Y      0.25247     0.28460
             61  C  5  Z      0.23689     0.29046
             62  C  5 XX      0.02286     0.11450
             63  C  5 YY      0.01781     0.11580
             64  C  5 ZZ      0.02064     0.12001
             65  C  5 XY      0.01716     0.03853
             66  C  5 XZ      0.00611     0.02986
             67  C  5 YZ      0.00000     0.01121
             68  C  5  S     -0.24888     0.04841
             69  C  5  X      0.02332     0.04509
             70  C  5  Y     -0.02397     0.03549
             71  C  5  Z     -0.02472     0.03235
             72  C  5 XX     -0.00947     0.10914
             73  C  5 YY      0.00437     0.08947
             74  C  5 ZZ      0.02037     0.10134
             75  C  5 XY      0.02887     0.13546
             76  C  5 XZ      0.02642     0.10501
             77  C  5 YZ      0.00000     0.05156
             78  H  6  S      0.78804     0.54208
             79  H  6  S      0.41814     0.14841
             80  H  6  X      0.00629     0.01600
             81  H  6  Y      0.01686     0.03123
             82  H  6  Z      0.00493     0.01317
             83  H  6  S     -0.01301     0.02073
             84  H  6  X     -0.02344     0.05156
             85  H  6  Y     -0.02262     0.07650
             86  H  6  Z     -0.02390     0.05439
             87  H  7  S      0.78611     0.54144
             88  H  7  S      0.43654     0.14725
             89  H  7  X      0.00443     0.01324
             90  H  7  Y      0.00536     0.01385
             91  H  7  Z      0.01845     0.03320
             92  H  7  S     -0.01716     0.02191
             93  H  7  X     -0.01391     0.05051
             94  H  7  Y     -0.02400     0.05473
             95  H  7  Z     -0.02205     0.07907
             96  C  8  S      2.00858     1.81463
             97  C  8  S      0.64812     0.41541
             98  C  8  S      0.19080     0.17081
             99  C  8  X      0.67367     0.57776
            100  C  8  Y      0.67926     0.57691
            101  C  8  Z      0.67625     0.57671
            102  C  8  X      0.43542     0.24914
            103  C  8  Y      0.25247     0.28460
            104  C  8  Z      0.23689     0.29046
            105  C  8 XX      0.02286     0.11450
            106  C  8 YY      0.01781     0.11580
            107  C  8 ZZ      0.02064     0.12000
            108  C  8 XY      0.01716     0.03853
            109  C  8 XZ      0.00611     0.02986
            110  C  8 YZ      0.00000     0.01121
            111  C  8  S     -0.24888     0.04841
            112  C  8  X      0.02332     0.04509
            113  C  8  Y     -0.02397     0.03549
            114  C  8  Z     -0.02472     0.03235
            115  C  8 XX     -0.00947     0.10914
            116  C  8 YY      0.00437     0.08947
            117  C  8 ZZ      0.02037     0.10134
            118  C  8 XY      0.02887     0.13546
            119  C  8 XZ      0.02642     0.10501
            120  C  8 YZ      0.00000     0.05156
            121  H  9  S      0.78804     0.54208
            122  H  9  S      0.41815     0.14841
            123  H  9  X      0.00629     0.01600
            124  H  9  Y      0.01686     0.03123
            125  H  9  Z      0.00493     0.01317
            126  H  9  S     -0.01301     0.02073
            127  H  9  X     -0.02344     0.05156
            128  H  9  Y     -0.02262     0.07649
            129  H  9  Z     -0.02390     0.05439
            130  H 10  S      0.78611     0.54144
            131  H 10  S      0.43654     0.14725
            132  H 10  X      0.00443     0.01324
            133  H 10  Y      0.00536     0.01385
            134  H 10  Z      0.01845     0.03320
            135  H 10  S     -0.01716     0.02191
            136  H 10  X     -0.01391     0.05051
            137  H 10  Y     -0.02400     0.05473
            138  H 10  Z     -0.02205     0.07907
            139  C 11  S      2.00788     1.81575
            140  C 11  S      0.65368     0.42053
            141  C 11  S      0.05537     0.18221
            142  C 11  X      0.67988     0.58052
            143  C 11  Y      0.68042     0.58218
            144  C 11  Z      0.68083     0.57947
            145  C 11  X      0.23155     0.29028
            146  C 11  Y      0.25221     0.30156
            147  C 11  Z      0.17580     0.31169
            148  C 11 XX      0.01605     0.11182
            149  C 11 YY      0.01659     0.12070
            150  C 11 ZZ      0.01286     0.11490
            151  C 11 XY      0.01543     0.02420
            152  C 11 XZ      0.00534     0.03124
            153  C 11 YZ      0.00000     0.00998
            154  C 11  S      0.23187     0.04992
            155  C 11  X      0.02088     0.03723
            156  C 11  Y      0.00991     0.03028
            157  C 11  Z      0.00623     0.02945
            158  C 11 XX     -0.01755     0.06915
            159  C 11 YY     -0.01886     0.09210
            160  C 11 ZZ     -0.00640     0.06279
            161  C 11 XY     -0.01215     0.05301
            162  C 11 XZ     -0.00142     0.08041
            163  C 11 YZ      0.00000     0.03403
            164  H 12  S      0.77630     0.53825
            165  H 12  S      0.34777     0.15790
            166  H 12  X      0.01535     0.02805
            167  H 12  Y      0.00494     0.01329
            168  H 12  Z      0.00958     0.01984
            169  H 12  S      0.01872     0.02019
            170  H 12  X     -0.02159     0.07122
            171  H 12  Y     -0.02058     0.05735
            172  H 12  Z     -0.01423     0.06700
            173  H 13  S      0.77592     0.54238
            174  H 13  S      0.35145     0.15660
            175  H 13  X      0.00670     0.01579
            176  H 13  Y      0.01792     0.03246
            177  H 13  Z      0.00522     0.01337
            178  H 13  S      0.01224     0.02146
            179  H 13  X     -0.00510     0.06350
            180  H 13  Y     -0.02683     0.07783
            181  H 13  Z     -0.02215     0.05982
            182  H 14  S      0.77566     0.54108
            183  H 14  S      0.30852     0.15549
            184  H 14  X      0.00574     0.01486
            185  H 14  Y      0.00566     0.01418
            186  H 14  Z      0.01835     0.03274
            187  H 14  S      0.01086     0.02082
            188  H 14  X     -0.01340     0.05740
            189  H 14  Y     -0.01562     0.05837
            190  H 14  Z     -0.03117     0.08440

          ----- MULLIKEN ATOMIC OVERLAP POPULATIONS -----
          (OFF-DIAGONAL ELEMENTS NEED TO BE MULTIPLIED BY 2)

             1           2           3           4           5

    1    4.2261621
    2    0.3242660   1.1615248
    3    0.3825149  -0.1960451   1.2000307
    4    0.3885071  -0.1925232  -0.1558883   1.1306160
    5    0.4488447   0.1141873  -0.1324879  -0.0830351   4.7396499
    6   -0.0602392  -0.0343607   0.0815945  -0.0926687   0.1695965
    7    0.0147395  -0.0580714  -0.0679548   0.0833558   0.1550137
    8   -0.1047245  -0.0069644   0.0185176  -0.0523428   0.5467735
    9    0.0325303  -0.0031605  -0.0009581   0.0123397   0.0763598
   10    0.0031168   0.0092978  -0.0187848  -0.0033649  -0.2070422
   11    0.0187044  -0.0026510  -0.0008440   0.0254463  -0.1047251
   12   -0.0026506  -0.0001033  -0.0009039   0.0017667  -0.0069647
   13   -0.0008450  -0.0009040   0.0028444   0.0037384   0.0185165
   14    0.0254459   0.0017667   0.0037384  -0.0013516  -0.0523408

             6           7           8           9          10

    6    1.3314322
    7   -0.2529791   1.4493703
    8    0.0763603  -0.2070455   4.7396496
    9   -0.1117461   0.0035532   0.1695969   1.3314349
   10    0.0035525   0.0635132   0.1550127  -0.2529779   1.4493645
   11    0.0325303   0.0031178   0.4488456  -0.0602405   0.0147402
   12   -0.0031606   0.0092977   0.1141874  -0.0343594  -0.0580727
   13   -0.0009580  -0.0187847  -0.1324849   0.0815942  -0.0679542
   14    0.0123397  -0.0033655  -0.0830366  -0.0926689   0.0833559

            11          12          13          14

   11    4.2261610
   12    0.3242655   1.1615260
   13    0.3825144  -0.1960440   1.2000293
   14    0.3885063  -0.1925246  -0.1558886   1.1306195

          TOTAL MULLIKEN AND LOWDIN ATOMIC POPULATIONS
       ATOM         MULL.POP.    CHARGE          LOW.POP.     CHARGE
    1 C             5.696372    0.303628         6.015392   -0.015392
    2 H             1.116259   -0.116259         0.973089    0.026911
    3 H             1.115374   -0.115374         0.983214    0.016786
    4 H             1.064595   -0.064595         0.979349    0.020651
    5 C             5.682346    0.317654         6.139667   -0.139667
    6 H             1.151294   -0.151294         0.954081    0.045919
    7 H             1.173760   -0.173760         0.955208    0.044792
    8 C             5.682345    0.317655         6.139667   -0.139667
    9 H             1.151297   -0.151297         0.954080    0.045920
   10 H             1.173757   -0.173757         0.955208    0.044792
   11 C             5.696371    0.303629         6.015393   -0.015393
   12 H             1.116259   -0.116259         0.973089    0.026911
   13 H             1.115374   -0.115374         0.983214    0.016786
   14 H             1.064596   -0.064596         0.979349    0.020651

          MULLIKEN SPHERICAL HARMONIC POPULATIONS
       ATOM           S       P       D      F      G      H      I    TOTAL
    1 C             2.95    2.74    0.01   0.00   0.00   0.00   0.00    5.70
    2 H             1.14   -0.03    0.00   0.00   0.00   0.00   0.00    1.12
    3 H             1.14   -0.02    0.00   0.00   0.00   0.00   0.00    1.12
    4 H             1.10   -0.03    0.00   0.00   0.00   0.00   0.00    1.06
    5 C             2.60    2.93    0.16   0.00   0.00   0.00   0.00    5.68
    6 H             1.19   -0.04    0.00   0.00   0.00   0.00   0.00    1.15
    7 H             1.21   -0.03    0.00   0.00   0.00   0.00   0.00    1.17
    8 C             2.60    2.93    0.16   0.00   0.00   0.00   0.00    5.68
    9 H             1.19   -0.04    0.00   0.00   0.00   0.00   0.00    1.15
   10 H             1.21   -0.03    0.00   0.00   0.00   0.00   0.00    1.17
   11 C             2.95    2.74    0.01   0.00   0.00   0.00   0.00    5.70
   12 H             1.14   -0.03    0.00   0.00   0.00   0.00   0.00    1.12
   13 H             1.14   -0.02    0.00   0.00   0.00   0.00   0.00    1.12
   14 H             1.10   -0.03    0.00   0.00   0.00   0.00   0.00    1.06

          -------------------------------
          BOND ORDER AND VALENCE ANALYSIS     BOND ORDER THRESHOLD=0.050
          -------------------------------

                   BOND                       BOND                       BOND
  ATOM PAIR DIST  ORDER      ATOM PAIR DIST  ORDER      ATOM PAIR DIST  ORDER
    1   2  1.086  0.917        1   3  1.087  0.970        1   4  1.086  0.938
    1   5  1.530  1.185        1   8  2.566 -0.071        1  10  2.633  0.050
    1  11  3.397  0.054        2   3  1.753 -0.078        2   4  1.755 -0.080
    2   5  2.173  0.073        3   4  1.754 -0.072        5   6  1.087  0.783
    5   7  1.087  0.826        5   8  1.538  1.275        5   9  2.157  0.086
    5  10  2.162 -0.115        5  11  2.566 -0.071        6   7  1.737 -0.110
    6   8  2.157  0.086        6   9  2.312 -0.056        7   8  2.162 -0.115
    7  10  3.028  0.050        7  11  2.633  0.050        8   9  1.087  0.783
    8  10  1.087  0.826        8  11  1.530  1.185        8  12  2.173  0.073
    9  10  1.737 -0.110       11  12  1.086  0.917       11  13  1.087  0.970
   11  14  1.086  0.938       12  13  1.753 -0.078       12  14  1.755 -0.080
   13  14  1.754 -0.072

                       TOTAL       BONDED        FREE
      ATOM            VALENCE     VALENCE     VALENCE
    1 C                 4.124       4.124      -0.000
    2 H                 0.782       0.782       0.000
    3 H                 0.772       0.772      -0.000
    4 H                 0.771       0.771      -0.000
    5 C                 3.958       3.958       0.000
    6 H                 0.683       0.683      -0.000
    7 H                 0.683       0.683       0.000
    8 C                 3.958       3.958      -0.000
    9 H                 0.683       0.683       0.000
   10 H                 0.683       0.683      -0.000
   11 C                 4.124       4.124       0.000
   12 H                 0.782       0.782      -0.000
   13 H                 0.772       0.772       0.000
   14 H                 0.771       0.771       0.000

          ---------------------
          ELECTROSTATIC MOMENTS
          ---------------------

 POINT   1           X           Y           Z (BOHR)    CHARGE
                -0.000000    0.000000   -0.000000       -0.00 (A.U.)
         DX          DY          DZ         /D/  (DEBYE)
     0.000002   -0.103186    0.000001    0.103186
 ...... END OF PROPERTY EVALUATION ......
 CPU     0: STEP CPU TIME=     0.05 TOTAL CPU TIME=       35.7 (    0.6 MIN)
 TOTAL WALL CLOCK TIME=       38.3 SECONDS, CPU UTILIZATION IS  93.34%



 ---------------------------     ------------------------------
 DISTRIBUTED DATA MP2 ENERGY     PROGRAM WRITTEN BY G. FLETCHER
 ---------------------------     ------------------------------

 DDI: Creating Array [0] - 36100 x 91 = 3285100 words.
    THIS CALCULATION IS RUNNING WITH MWORDS=    5, MEMDDI=     100, AND P=    8
 MEMORY USAGE PER CPU IS 8*(MWORDS + MEMDDI/P)/1024 =    0.1 GBYTES.

 MINIMAL REQUIREMENT FOR THIS RUN IS MWORDS=    1, MEMDDI=       3.
 FOR P=    8, THE MEMORY USAGE PER CPU(CORE) WOULD BE    0.0 GBYTES.


      DIRECT 4-INDEX TRANSFORMATION 
      SCHWARZ INEQUALITY TEST SKIPPED     218412 INTEGRAL BLOCKS

 RESULTS OF MOLLER-PLESSET 2ND ORDER CORRECTION ARE
                     E(SCF)=      -157.3116609889
                       E(2)=        -0.6100664647
                     E(MP2)=      -157.9217274536
 SPIN-COMPONENT-SCALED MP2 RESULTS ARE
                      E(2S)=        -0.4748117613
                      E(2T)=        -0.1352547034
                     E(2ST)=        -0.6148590147 = 6/5 * E(2S) + 1/3 * E(2T)
                    SCS-MP2=      -157.9265200036
 ..... DONE WITH MP2 ENERGY .....
 CPU     0: STEP CPU TIME=     9.61 TOTAL CPU TIME=       45.3 (    0.8 MIN)
 TOTAL WALL CLOCK TIME=       49.3 SECONDS, CPU UTILIZATION IS  91.87%
               580000  WORDS OF DYNAMIC MEMORY USED
 EXECUTION OF GAMESS TERMINATED NORMALLY Fri Feb  5 10:01:34 2016
 DDI: 3729224 bytes (3.6 MB / 0 MWords) used by master data server.

 ----------------------------------------
 CPU timing information for all processes
 ========================================
 0: 45.222 + 0.117 = 45.340
 1: 44.23 + 0.80 = 44.104
 2: 43.245 + 0.94 = 43.340
 3: 43.692 + 0.75 = 43.768
 4: 43.57 + 0.89 = 43.147
 5: 43.376 + 0.75 = 43.452
 6: 42.131 + 0.78 = 42.210
 7: 42.515 + 0.69 = 42.585
 ----------------------------------------
 ddikick.x: exited gracefully.
unset echo
----- accounting info -----
Files used on the master node wr28 were:
-rw-r--r-- 1 kkirsc3m fb03-hpc  562667 Feb  5 10:01 /tmp/4609.wr0.wr.inf.h-brs.de/04.dat
-rw-r--r-- 1 kkirsc3m fb03-hpc    1284 Feb  5 10:00 /tmp/4609.wr0.wr.inf.h-brs.de/04.F05
-rw-r--r-- 1 kkirsc3m fb03-hpc 4155440 Feb  5 10:01 /tmp/4609.wr0.wr.inf.h-brs.de/04.F10
ls: No match.
ls: No match.
ls: No match.
Fri Feb  5 10:01:37 CET 2016
0.295u 0.078s 0:52.79 0.6%	0+0k 16+192io 0pf+0w
