----- GAMESS execution script 'rungms' -----
This job is running on host wr30
under operating system Linux at Fri Feb 5 10:01:24 CET 2016
PBS has assigned the following compute nodes to this run:
wr30
Available scratch disk space (Kbyte units) at beginning of the job is
Filesystem     1K-blocks    Used Available Use% Mounted on
/dev/sda2      379797844 8359900 352138668   3% /
GAMESS temporary binary files will be written to /tmp/4610.wr0.wr.inf.h-brs.de
GAMESS supplementary output files will be written to /tmp/4610.wr0.wr.inf.h-brs.de
Copying input file 05.inp to your run's scratch directory...
cp 05.inp /tmp/4610.wr0.wr.inf.h-brs.de/05.F05
unset echo
/usr/local/hpc5/gamess-gnu/ddikick.x /usr/local/hpc5/gamess-gnu/gamess.00.x 05 -ddi 1 8 wr30:cpus=8:netext=.myri -scr /tmp/4610.wr0.wr.inf.h-brs.de

 Distributed Data Interface kickoff program.
 Initiating 8 compute processes on 1 nodes to run the following command:
 /usr/local/hpc5/gamess-gnu/gamess.00.x 05 

          ******************************************************
          *         GAMESS VERSION =  1 MAY 2013 (R1)          *
          *             FROM IOWA STATE UNIVERSITY             *
          * M.W.SCHMIDT, K.K.BALDRIDGE, J.A.BOATZ, S.T.ELBERT, *
          *   M.S.GORDON, J.H.JENSEN, S.KOSEKI, N.MATSUNAGA,   *
          *          K.A.NGUYEN, S.J.SU, T.L.WINDUS,           *
          *       TOGETHER WITH M.DUPUIS, J.A.MONTGOMERY       *
          *         J.COMPUT.CHEM.  14, 1347-1363(1993)        *
          **************** 64 BIT LINUX VERSION ****************

  SINCE 1993, STUDENTS AND POSTDOCS WORKING AT IOWA STATE UNIVERSITY
  AND ALSO IN THEIR VARIOUS JOBS AFTER LEAVING ISU HAVE MADE IMPORTANT
  CONTRIBUTIONS TO THE CODE:
     IVANA ADAMOVIC, CHRISTINE AIKENS, YURI ALEXEEV, POOJA ARORA,
     ANDREY ASADCHEV, ROB BELL, PRADIPTA BANDYOPADHYAY, JONATHAN BENTZ,
     BRETT BODE, GALINA CHABAN, WEI CHEN, CHEOL HO CHOI, PAUL DAY,
     ALBERT DEFUSCO, TIM DUDLEY, DMITRI FEDOROV, GRAHAM FLETCHER,
     MARK FREITAG, KURT GLAESEMANN, DAN KEMP, GRANT MERRILL,
     NORIYUKI MINEZAWA, JONATHAN MULLIN, TAKESHI NAGATA,
     SEAN NEDD, HEATHER NETZLOFF, BOSILJKA NJEGIC, RYAN OLSON, MIKE PAK,
     JIM SHOEMAKER, LYUDMILA SLIPCHENKO, SAROM SOK, JIE SONG,
     TETSUYA TAKETSUGU, SIMON WEBB, SOOHAENG YOO, FEDERICO ZAHARIEV

  ADDITIONAL CODE HAS BEEN PROVIDED BY COLLABORATORS IN OTHER GROUPS:
     IOWA STATE UNIVERSITY:
          JOE IVANIC, LAIMUTIS BYTAUTAS, KLAUS RUEDENBERG
     UNIVERSITY OF TOKYO: KIMIHIKO HIRAO, TAKAHITO NAKAJIMA,
          TAKAO TSUNEDA, MUNEAKI KAMIYA, SUSUMU YANAGISAWA,
          KIYOSHI YAGI, MAHITO CHIBA, SEIKEN TOKURA, NAOAKI KAWAKAMI
     UNIVERSITY OF AARHUS: FRANK JENSEN
     UNIVERSITY OF IOWA: VISVALDAS KAIRYS, HUI LI
     NATIONAL INST. OF STANDARDS AND TECHNOLOGY: WALT STEVENS, DAVID GARMER
     UNIVERSITY OF PISA: BENEDETTA MENNUCCI, JACOPO TOMASI
     UNIVERSITY OF MEMPHIS: HENRY KURTZ, PRAKASHAN KORAMBATH
     UNIVERSITY OF ALBERTA: TOBY ZENG, MARIUSZ KLOBUKOWSKI
     UNIVERSITY OF NEW ENGLAND: MARK SPACKMAN
     MIE UNIVERSITY: HIROAKI UMEDA
     MICHIGAN STATE UNIVERSITY:
          KAROL KOWALSKI, MARTA WLOCH, JEFFREY GOUR, JESSE LUTZ,
          WEI LI, PIOTR PIECUCH
     UNIVERSITY OF SILESIA: MONIKA MUSIAL, STANISLAW KUCHARSKI
     FACULTES UNIVERSITAIRES NOTRE-DAME DE LA PAIX:
          OLIVIER QUINET, BENOIT CHAMPAGNE
     UNIVERSITY OF CALIFORNIA - SANTA BARBARA: BERNARD KIRTMAN
     INSTITUTE FOR MOLECULAR SCIENCE:
          KAZUYA ISHIMURA, MICHIO KATOUDA, AND SHIGERU NAGASE
     UNIVERSITY OF NOTRE DAME: DAN CHIPMAN
     KYUSHU UNIVERSITY:
          HARUYUKI NAKANO,
          FENG LONG GU, JACEK KORCHOWIEC, MARCIN MAKOWSKI, AND YURIKO AOKI,
          HIROTOSHI MORI AND EISAKU MIYOSHI
     PENNSYLVANIA STATE UNIVERSITY:
          TZVETELIN IORDANOV, CHET SWALINA, JONATHAN SKONE,
          SHARON HAMMES-SCHIFFER
     WASEDA UNIVERSITY:
          MASATO KOBAYASHI, TOMOKO AKAMA, TSUGUKI TOUMA,
          TAKESHI YOSHIKAWA, YASUHIRO IKABATA, HIROMI NAKAI
     NANJING UNIVERSITY: SHUHUA LI
     UNIVERSITY OF NEBRASKA:
          PEIFENG SU, DEJUN SI, NANDUN THELLAMUREGE, YALI WANG, HUI LI
     UNIVERSITY OF ZURICH:
          ROBERTO PEVERATI, KIM BALDRIDGE
     N. COPERNICUS UNIVERSITY AND JACKSON STATE UNIVERSITY:
          MARIA BARYSZ


 PARALLEL VERSION RUNNING ON     8 PROCESSORS IN     1 NODES.

 EXECUTION OF GAMESS BEGUN Fri Feb  5 10:01:24 2016

            ECHO OF THE FIRST FEW INPUT CARDS -
 INPUT CARD> $CONTRL  ICHARG=0 MPLEVL=2 ISPHER=1                                            
 INPUT CARD>          RUNTYP=ENERGY SCFTYP=RHF EXETYP=RUN                                   
 INPUT CARD>          MULT=1 UNITS=ANGS MAXIT=200                                           
 INPUT CARD>          COORD=PRINAXIS                       $END                             
 INPUT CARD> $SCF     DIRSCF=.T. CONV=1.0E-08  FDIFF=.F.   $END                             
 INPUT CARD> $SYSTEM  TIMLIM=50000 MWORDS=5 MEMDDI=100     $END                             
 INPUT CARD> $BASIS   GBASIS=ACCD                          $END                             
 INPUT CARD> $GUESS   GUESS=HUCKEL                         $END                             
 INPUT CARD> $DATA                                                                          
 INPUT CARD>Full optimization                                                               
 INPUT CARD> C1                                                                             
 INPUT CARD> C           6.0   1.8345482003   0.3364209252   0.1433343653                   
 INPUT CARD> H           1.0   2.6772245191   0.3343799014  -0.5415053472                   
 INPUT CARD> H           1.0   1.6108361657   1.3704871302   0.3912514049                   
 INPUT CARD> H           1.0   2.1485964316  -0.1602825972   1.0570599422                   
 INPUT CARD> C           6.0   0.6174322707  -0.3567856536  -0.4702994362                   
 INPUT CARD> H           1.0   0.8888214135  -1.3734673740  -0.7400874069                   
 INPUT CARD> H           1.0   0.3651248818   0.1401359424  -1.4037146397                   
 INPUT CARD> C           6.0  -0.6174507142  -0.3694020024   0.4604311329                   
 INPUT CARD> H           1.0  -0.8888899615  -1.3930242261   0.7024997872                   
 INPUT CARD> H           1.0  -0.3651176426   0.1019659871   1.4070010107                   
 INPUT CARD> C           6.0  -1.8345311961   0.3402845636  -0.1341386781                   
 INPUT CARD> H           1.0  -2.6772066998   0.3196815966   0.5503950992                   
 INPUT CARD> H           1.0  -1.6107645313   1.3806928288  -0.3538699259                   
 INPUT CARD> H           1.0  -2.1486074399  -0.1313934814  -1.0610211988                   
 INPUT CARD> $END                                                                           
    5000000 WORDS OF MEMORY AVAILABLE

     BASIS OPTIONS
     -------------
     GBASIS=ACCD         IGAUSS=       0      POLAR=NONE    
     NDFUNC=       0     NFFUNC=       0     DIFFSP=       F
     NPFUNC=       0      DIFFS=       F     BASNAM=        


     RUN TITLE
     ---------
 Full optimization                                                               

 THE POINT GROUP OF THE MOLECULE IS C1      
 THE ORDER OF THE PRINCIPAL AXIS IS     0

 THE MOMENTS OF INERTIA ARE (AMU-ANGSTROM**2)
 IXX=    27.705   IYY=   134.599   IZZ=   134.640

 ATOM      ATOMIC                      COORDINATES (BOHR)
           CHARGE         X                   Y                   Z
 C           6.0    -3.4661188806        0.6394588266       -0.2707491014
 H           1.0    -5.0617384109        0.6180310401        1.0193002886
 H           1.0    -3.0422243005        2.5997444605       -0.7115625873
 H           1.0    -4.0553089109       -0.2755748320       -2.0115144478
 C           6.0    -1.1689642761       -0.6862294574        0.8765944846
 H           1.0    -1.6830576212       -2.6142263719        1.3589585901
 H           1.0    -0.6965390859        0.2287128838        2.6542816640
 C           6.0     1.1689642563       -0.6861929307       -0.8766228613
 H           1.0     1.6830543375       -2.6141672129       -1.3590794853
 H           1.0     0.6965370152        0.2288355726       -2.6542654091
 C           6.0     3.4661192432        0.6394471857        0.2707759109
 H           1.0     5.0617361540        0.6180801293       -1.0192777307
 H           1.0     3.0422210256        2.5997116966        0.7116792171
 H           1.0     4.0553157179       -0.2756638632        2.0114985593

          INTERNUCLEAR DISTANCES (ANGS.)
          ------------------------------

                1 C          2 H          3 H          4 H          5 C     

   1 C       0.0000000    1.0858697 *  1.0866475 *  1.0863863 *  1.5292001 *
   2 H       1.0858697 *  0.0000000    1.7552030 *  1.7548646 *  2.1738271 *
   3 H       1.0866475 *  1.7552030 *  0.0000000    1.7537797 *  2.1708506 *
   4 H       1.0863863 *  1.7548646 *  1.7537797 *  0.0000000    2.1716132 *
   5 C       1.5292001 *  2.1738271 *  2.1708506 *  2.1716132 *  0.0000000  
   6 H       2.1444233 *  2.4808391 *  3.0545898    2.5077059 *  1.0863146 *
   7 H       2.1426837 *  2.4752657 *  2.5074816 *  3.0539210    1.0871311 *
   8 C       2.5711933 *  3.5148358    2.8279431 *  2.8373780 *  1.5464005 *
   9 H       3.2742575    4.1531490    3.7393183    3.2972244    2.1721545 *
  10 H       2.5476170 *  3.6202954    2.5583758 *  2.5514685 *  2.1679747 *
  11 C       3.6795584    4.5301128    3.6342686    4.1874607    2.5711935 *
  12 H       4.5301116    5.4646497    4.4177857    4.8760077    3.5148359  
  13 H       3.6342669    4.4177854    3.3066631    4.3009445    2.8279406 *
  14 H       4.1874636    4.8760123    4.3009484    4.7909355    2.8373807 *

                6 H          7 H          8 C          9 H         10 H     

   1 C       2.1444233 *  2.1426837 *  2.5711933 *  3.2742575    2.5476170 *
   2 H       2.4808391 *  2.4752657 *  3.5148358    4.1531490    3.6202954  
   3 H       3.0545898    2.5074816 *  2.8279431 *  3.7393183    2.5583758 *
   4 H       2.5077059 *  3.0539210    2.8373780 *  3.2972244    2.5514685 *
   5 C       1.0863146 *  1.0871311 *  1.5464005 *  2.1721545 *  2.1679747 *
   6 H       0.0000000    1.7336823 *  2.1721528 *  2.2894755 *  2.8912377 *
   7 H       1.7336823 *  0.0000000    2.1679767 *  2.8912407 *  2.9042785 *
   8 C       2.1721528 *  2.1679767 *  0.0000000    1.0863144 *  1.0871312 *
   9 H       2.2894755 *  2.8912407 *  1.0863144 *  0.0000000    1.7336825 *
  10 H       2.8912377 *  2.9042785 *  1.0871312 *  1.7336825 *  0.0000000  
  11 C       3.2742585    2.5476204 *  1.5292002 *  2.1444255 *  2.1426814 *
  12 H       4.1531500    3.6202987    2.1738271 *  2.4808414 *  2.4752635 *
  13 H       3.7393171    2.5583773 *  2.1708502 *  3.0545910    2.5074778 *
  14 H       3.2972292    2.5514735 *  2.1716137 *  2.5077094 *  3.0539198  

               11 C         12 H         13 H         14 H     

   1 C       3.6795584    4.5301116    3.6342669    4.1874636  
   2 H       4.5301128    5.4646497    4.4177854    4.8760123  
   3 H       3.6342686    4.4177857    3.3066631    4.3009484  
   4 H       4.1874607    4.8760077    4.3009445    4.7909355  
   5 C       2.5711935 *  3.5148359    2.8279406 *  2.8373807 *
   6 H       3.2742585    4.1531500    3.7393171    3.2972292  
   7 H       2.5476204 *  3.6202987    2.5583773 *  2.5514735 *
   8 C       1.5292002 *  2.1738271 *  2.1708502 *  2.1716137 *
   9 H       2.1444255 *  2.4808414 *  3.0545910    2.5077094 *
  10 H       2.1426814 *  2.4752635 *  2.5074778 *  3.0539198  
  11 C       0.0000000    1.0858697 *  1.0866475 *  1.0863863 *
  12 H       1.0858697 *  0.0000000    1.7552034 *  1.7548642 *
  13 H       1.0866475 *  1.7552034 *  0.0000000    1.7537796 *
  14 H       1.0863863 *  1.7548642 *  1.7537796 *  0.0000000  

  * ... LESS THAN  3.000


     ATOMIC BASIS SET
     ----------------
 THE CONTRACTED PRIMITIVE FUNCTIONS HAVE BEEN UNNORMALIZED
 THE CONTRACTED BASIS FUNCTIONS ARE NOW NORMALIZED TO UNITY

  SHELL TYPE  PRIMITIVE        EXPONENT          CONTRACTION COEFFICIENT(S)

 C         

      1   S       1          6665.0000000    0.000691583963
      1   S       2          1000.0000000    0.005325796153
      1   S       3           228.0000000    0.027060721042
      1   S       4            64.7100000    0.101656846141
      1   S       5            21.0600000    0.274574823617
      1   S       6             7.4950000    0.448294318924
      1   S       7             2.7970000    0.284902610715
      1   S       8             0.5215000    0.015194859206

      2   S       9          6665.0000000   -0.000293269653
      2   S      10          1000.0000000   -0.002318035474
      2   S      11           228.0000000   -0.011499786039
      2   S      12            64.7100000   -0.046826727010
      2   S      13            21.0600000   -0.128466168750
      2   S      14             7.4950000   -0.301266272463
      2   S      15             2.7970000   -0.255630702330
      2   S      16             0.5215000    1.093793361012

      3   S      17             0.1596000    1.000000000000

      4   P      18             9.4390000    0.056979251590
      4   P      19             2.0020000    0.313207211501
      4   P      20             0.5456000    0.760376741738

      5   P      21             0.1517000    1.000000000000

      6   D      22             0.5500000    1.000000000000

      7   S      23             0.0469000    1.000000000000

      8   P      24             0.0404100    1.000000000000

      9   D      25             0.1510000    1.000000000000

 H         

     10   S      26            13.0100000    0.033498726390
     10   S      27             1.9620000    0.234800801174
     10   S      28             0.4446000    0.813682957883

     11   S      29             0.1220000    1.000000000000

     12   P      30             0.7270000    1.000000000000

     13   S      31             0.0297400    1.000000000000

     14   P      32             0.1410000    1.000000000000

 H         

     15   S      33            13.0100000    0.033498726390
     15   S      34             1.9620000    0.234800801174
     15   S      35             0.4446000    0.813682957883

     16   S      36             0.1220000    1.000000000000

     17   P      37             0.7270000    1.000000000000

     18   S      38             0.0297400    1.000000000000

     19   P      39             0.1410000    1.000000000000

 H         

     20   S      40            13.0100000    0.033498726390
     20   S      41             1.9620000    0.234800801174
     20   S      42             0.4446000    0.813682957883

     21   S      43             0.1220000    1.000000000000

     22   P      44             0.7270000    1.000000000000

     23   S      45             0.0297400    1.000000000000

     24   P      46             0.1410000    1.000000000000

 C         

     25   S      47          6665.0000000    0.000691583963
     25   S      48          1000.0000000    0.005325796153
     25   S      49           228.0000000    0.027060721042
     25   S      50            64.7100000    0.101656846141
     25   S      51            21.0600000    0.274574823617
     25   S      52             7.4950000    0.448294318924
     25   S      53             2.7970000    0.284902610715
     25   S      54             0.5215000    0.015194859206

     26   S      55          6665.0000000   -0.000293269653
     26   S      56          1000.0000000   -0.002318035474
     26   S      57           228.0000000   -0.011499786039
     26   S      58            64.7100000   -0.046826727010
     26   S      59            21.0600000   -0.128466168750
     26   S      60             7.4950000   -0.301266272463
     26   S      61             2.7970000   -0.255630702330
     26   S      62             0.5215000    1.093793361012

     27   S      63             0.1596000    1.000000000000

     28   P      64             9.4390000    0.056979251590
     28   P      65             2.0020000    0.313207211501
     28   P      66             0.5456000    0.760376741738

     29   P      67             0.1517000    1.000000000000

     30   D      68             0.5500000    1.000000000000

     31   S      69             0.0469000    1.000000000000

     32   P      70             0.0404100    1.000000000000

     33   D      71             0.1510000    1.000000000000

 H         

     34   S      72            13.0100000    0.033498726390
     34   S      73             1.9620000    0.234800801174
     34   S      74             0.4446000    0.813682957883

     35   S      75             0.1220000    1.000000000000

     36   P      76             0.7270000    1.000000000000

     37   S      77             0.0297400    1.000000000000

     38   P      78             0.1410000    1.000000000000

 H         

     39   S      79            13.0100000    0.033498726390
     39   S      80             1.9620000    0.234800801174
     39   S      81             0.4446000    0.813682957883

     40   S      82             0.1220000    1.000000000000

     41   P      83             0.7270000    1.000000000000

     42   S      84             0.0297400    1.000000000000

     43   P      85             0.1410000    1.000000000000

 C         

     44   S      86          6665.0000000    0.000691583963
     44   S      87          1000.0000000    0.005325796153
     44   S      88           228.0000000    0.027060721042
     44   S      89            64.7100000    0.101656846141
     44   S      90            21.0600000    0.274574823617
     44   S      91             7.4950000    0.448294318924
     44   S      92             2.7970000    0.284902610715
     44   S      93             0.5215000    0.015194859206

     45   S      94          6665.0000000   -0.000293269653
     45   S      95          1000.0000000   -0.002318035474
     45   S      96           228.0000000   -0.011499786039
     45   S      97            64.7100000   -0.046826727010
     45   S      98            21.0600000   -0.128466168750
     45   S      99             7.4950000   -0.301266272463
     45   S     100             2.7970000   -0.255630702330
     45   S     101             0.5215000    1.093793361012

     46   S     102             0.1596000    1.000000000000

     47   P     103             9.4390000    0.056979251590
     47   P     104             2.0020000    0.313207211501
     47   P     105             0.5456000    0.760376741738

     48   P     106             0.1517000    1.000000000000

     49   D     107             0.5500000    1.000000000000

     50   S     108             0.0469000    1.000000000000

     51   P     109             0.0404100    1.000000000000

     52   D     110             0.1510000    1.000000000000

 H         

     53   S     111            13.0100000    0.033498726390
     53   S     112             1.9620000    0.234800801174
     53   S     113             0.4446000    0.813682957883

     54   S     114             0.1220000    1.000000000000

     55   P     115             0.7270000    1.000000000000

     56   S     116             0.0297400    1.000000000000

     57   P     117             0.1410000    1.000000000000

 H         

     58   S     118            13.0100000    0.033498726390
     58   S     119             1.9620000    0.234800801174
     58   S     120             0.4446000    0.813682957883

     59   S     121             0.1220000    1.000000000000

     60   P     122             0.7270000    1.000000000000

     61   S     123             0.0297400    1.000000000000

     62   P     124             0.1410000    1.000000000000

 C         

     63   S     125          6665.0000000    0.000691583963
     63   S     126          1000.0000000    0.005325796153
     63   S     127           228.0000000    0.027060721042
     63   S     128            64.7100000    0.101656846141
     63   S     129            21.0600000    0.274574823617
     63   S     130             7.4950000    0.448294318924
     63   S     131             2.7970000    0.284902610715
     63   S     132             0.5215000    0.015194859206

     64   S     133          6665.0000000   -0.000293269653
     64   S     134          1000.0000000   -0.002318035474
     64   S     135           228.0000000   -0.011499786039
     64   S     136            64.7100000   -0.046826727010
     64   S     137            21.0600000   -0.128466168750
     64   S     138             7.4950000   -0.301266272463
     64   S     139             2.7970000   -0.255630702330
     64   S     140             0.5215000    1.093793361012

     65   S     141             0.1596000    1.000000000000

     66   P     142             9.4390000    0.056979251590
     66   P     143             2.0020000    0.313207211501
     66   P     144             0.5456000    0.760376741738

     67   P     145             0.1517000    1.000000000000

     68   D     146             0.5500000    1.000000000000

     69   S     147             0.0469000    1.000000000000

     70   P     148             0.0404100    1.000000000000

     71   D     149             0.1510000    1.000000000000

 H         

     72   S     150            13.0100000    0.033498726390
     72   S     151             1.9620000    0.234800801174
     72   S     152             0.4446000    0.813682957883

     73   S     153             0.1220000    1.000000000000

     74   P     154             0.7270000    1.000000000000

     75   S     155             0.0297400    1.000000000000

     76   P     156             0.1410000    1.000000000000

 H         

     77   S     157            13.0100000    0.033498726390
     77   S     158             1.9620000    0.234800801174
     77   S     159             0.4446000    0.813682957883

     78   S     160             0.1220000    1.000000000000

     79   P     161             0.7270000    1.000000000000

     80   S     162             0.0297400    1.000000000000

     81   P     163             0.1410000    1.000000000000

 H         

     82   S     164            13.0100000    0.033498726390
     82   S     165             1.9620000    0.234800801174
     82   S     166             0.4446000    0.813682957883

     83   S     167             0.1220000    1.000000000000

     84   P     168             0.7270000    1.000000000000

     85   S     169             0.0297400    1.000000000000

     86   P     170             0.1410000    1.000000000000

 TOTAL NUMBER OF BASIS SET SHELLS             =   86
 NUMBER OF CARTESIAN GAUSSIAN BASIS FUNCTIONS =  190
 NOTE: THIS RUN WILL RESTRICT THE MO VARIATION SPACE TO SPHERICAL HARMONICS.
 THE NUMBER OF ORBITALS KEPT IN THE VARIATIONAL SPACE WILL BE PRINTED LATER.
 NUMBER OF ELECTRONS                          =   34
 CHARGE OF MOLECULE                           =    0
 SPIN MULTIPLICITY                            =    1
 NUMBER OF OCCUPIED ORBITALS (ALPHA)          =   17
 NUMBER OF OCCUPIED ORBITALS (BETA )          =   17
 TOTAL NUMBER OF ATOMS                        =   14
 THE NUCLEAR REPULSION ENERGY IS      131.0299782771

     $CONTRL OPTIONS
     ---------------
 SCFTYP=RHF          RUNTYP=ENERGY       EXETYP=RUN     
 MPLEVL=       2     CITYP =NONE         CCTYP =NONE         VBTYP =NONE    
 DFTTYP=NONE         TDDFT =NONE    
 MULT  =       1     ICHARG=       0     NZVAR =       0     COORD =PRINAXIS
 PP    =NONE         RELWFN=NONE         LOCAL =NONE         NUMGRD=       F
 ISPHER=       1     NOSYM =       0     MAXIT =     200     UNITS =ANGS    
 PLTORB=       F     MOLPLT=       F     AIMPAC=       F     FRIEND=        
 NPRINT=       7     IREST =       0     GEOM  =INPUT   
 NORMF =       0     NORMP =       0     ITOL  =      20     ICUT  =       9
 INTTYP=BEST         GRDTYP=BEST         QMTTOL= 1.0E-06

     $SYSTEM OPTIONS
     ---------------
  REPLICATED MEMORY=     5000000 WORDS (ON EVERY NODE).
 DISTRIBUTED MEMDDI=         100 MILLION WORDS IN AGGREGATE,
 MEMDDI DISTRIBUTED OVER   8 PROCESSORS IS    12500000 WORDS/PROCESSOR.
 TOTAL MEMORY REQUESTED ON EACH PROCESSOR=    17500000 WORDS.
 TIMLIM=       50000.00 MINUTES, OR      34.7 DAYS.
 PARALL= T  BALTYP=  DLB     KDIAG=    0  COREFL= F
 MXSEQ2=     300 MXSEQ3=     150

          ----------------
          PROPERTIES INPUT
          ----------------

     MOMENTS            FIELD           POTENTIAL          DENSITY
 IEMOM =       1   IEFLD =       0   IEPOT =       0   IEDEN =       0
 WHERE =COMASS     WHERE =NUCLEI     WHERE =NUCLEI     WHERE =NUCLEI  
 OUTPUT=BOTH       OUTPUT=BOTH       OUTPUT=BOTH       OUTPUT=BOTH    
 IEMINT=       0   IEFINT=       0                     IEDINT=       0
                                                       MORB  =       0
          EXTRAPOLATION IN EFFECT
          SOSCF IN EFFECT
 ORBITAL PRINTING OPTION: NPREO=     1   190     2     1

     -------------------------------
     INTEGRAL TRANSFORMATION OPTIONS
     -------------------------------
     NWORD  =            0
     CUTOFF = 1.0E-09     MPTRAN =       0
     DIRTRF =       T     AOINTS =DUP     

          ----------------------
          INTEGRAL INPUT OPTIONS
          ----------------------
 NOPK  =       1 NORDER=       0 SCHWRZ=       T

          -----------------------
          MP2 CONTROL INFORMATION
          -----------------------
          NACORE =        4  NBCORE =        4
          LMOMP2 =        F  AOINTS = DUP     
          METHOD =        2  NWORD  =               0
          MP2PRP =        F  OSPT   = NONE    
          CUTOFF = 1.00E-09  CPHFBS = BASISAO 
          CODE   = DDI     

          NUMBER OF CORE -A-  ORBITALS =     4
          NUMBER OF CORE -B-  ORBITALS =     4
          NUMBER OF OCC. -A-  ORBITALS =    17
          NUMBER OF OCC. -B-  ORBITALS =    17
          NUMBER OF MOLECULAR ORBITALS =   190
          NUMBER OF   BASIS  FUNCTIONS =   190


     ------------------------------------------
     THE POINT GROUP IS C1 , NAXIS= 0, ORDER= 1
     ------------------------------------------

 -- VARIATIONAL SPACE WILL BE RESTRICTED TO PURE SPHERICAL HARMONICS ONLY --
 AFTER EXCLUDING CONTAMINANT COMBINATIONS FROM THE CARTESIAN GAUSSIAN BASIS
 SET, THE NUMBER OF SPHERICAL HARMONICS KEPT IN THE VARIATION SPACE IS  182

     DIMENSIONS OF THE SYMMETRY SUBSPACES ARE
 A   =  182

 ..... DONE SETTING UP THE RUN .....
 CPU     0: STEP CPU TIME=     0.03 TOTAL CPU TIME=        0.0 (    0.0 MIN)
 TOTAL WALL CLOCK TIME=        0.0 SECONDS, CPU UTILIZATION IS  75.00%

          ********************
          1 ELECTRON INTEGRALS
          ********************
 ...... END OF ONE-ELECTRON INTEGRALS ......
 CPU     0: STEP CPU TIME=     0.00 TOTAL CPU TIME=        0.0 (    0.0 MIN)
 TOTAL WALL CLOCK TIME=        0.0 SECONDS, CPU UTILIZATION IS  75.00%

          -------------
          GUESS OPTIONS
          -------------
          GUESS =HUCKEL            NORB  =       0          NORDER=       0
          MIX   =       F          PRTMO =       F          PUNMO =       F
          TOLZ  = 1.0E-08          TOLE  = 1.0E-05
          SYMDEN=       F          PURIFY=       F

 INITIAL GUESS ORBITALS GENERATED BY HUCKEL   ROUTINE.
 HUCKEL GUESS REQUIRES    272744 WORDS.

 STATISTICS FOR GENERATION OF SYMMETRY ORBITAL -Q- MATRIX
 NUMBER OF CARTESIAN ATOMIC ORBITALS=        190
 NUMBER OF SPHERICAL CONTAMINANTS DROPPED=     8
 NUMBER OF LINEARLY DEPENDENT MOS DROPPED=     0
 TOTAL NUMBER OF MOS IN VARIATION SPACE=     182

 SYMMETRIES FOR INITIAL GUESS ORBITALS FOLLOW.   BOTH SET(S).
    17 ORBITALS ARE OCCUPIED (    4 CORE ORBITALS).
     5=A        6=A        7=A        8=A        9=A       10=A       11=A   
    12=A       13=A       14=A       15=A       16=A       17=A       18=A   
    19=A       20=A       21=A       22=A       23=A       24=A       25=A   
    26=A       27=A   
 ...... END OF INITIAL ORBITAL SELECTION ......
 CPU     0: STEP CPU TIME=     0.06 TOTAL CPU TIME=        0.1 (    0.0 MIN)
 TOTAL WALL CLOCK TIME=        0.1 SECONDS, CPU UTILIZATION IS  69.23%

                    ----------------------
                    AO INTEGRAL TECHNOLOGY
                    ----------------------
     S,P,L SHELL ROTATED AXIS INTEGRALS, REPROGRAMMED BY
        KAZUYA ISHIMURA (IMS) AND JOSE SIERRA (SYNSTAR).
     S,P,D,L SHELL ROTATED AXIS INTEGRALS PROGRAMMED BY
        KAZUYA ISHIMURA (INSTITUTE FOR MOLECULAR SCIENCE).
     S,P,D,F,G SHELL TO TOTAL QUARTET ANGULAR MOMENTUM SUM 5,
        ERIC PROGRAM BY GRAHAM FLETCHER (ELORET AND NASA ADVANCED
        SUPERCOMPUTING DIVISION, AMES RESEARCH CENTER).
     S,P,D,F,G,L SHELL GENERAL RYS QUADRATURE PROGRAMMED BY
        MICHEL DUPUIS (PACIFIC NORTHWEST NATIONAL LABORATORY).

          --------------------
          2 ELECTRON INTEGRALS
          --------------------

 DIRECT SCF METHOD SKIPS INTEGRAL STORAGE ON DISK.
 DIRECT TRANSFORMATION SKIPS AO INTEGRAL STORAGE ON DISK.
  ...... END OF TWO-ELECTRON INTEGRALS .....
 CPU     0: STEP CPU TIME=     0.02 TOTAL CPU TIME=        0.1 (    0.0 MIN)
 TOTAL WALL CLOCK TIME=        0.2 SECONDS, CPU UTILIZATION IS  73.33%

          --------------------------
                 RHF SCF CALCULATION
          --------------------------

     NUCLEAR ENERGY =       131.0299782771
     MAXIT =  200     NPUNCH=    2
     EXTRAP=T  DAMP=F  SHIFT=F  RSTRCT=F  DIIS=F  DEM=F  SOSCF=T
     DENSITY MATRIX CONV=  2.00E-08
     SOSCF WILL OPTIMIZE    2805 ORBITAL ROTATIONS, SOGTOL=   0.250
     MEMORY REQUIRED FOR RHF ITERS=    319458 WORDS.

 DIRECT SCF CALCULATION, SCHWRZ=T   FDIFF=F,  DIRTHR=  0.00E+00 NITDIR=10
 SCHWARZ INEQUALITY OVERHEAD:     18136 INTEGRALS, T=        0.00

                                                                                   NONZERO     BLOCKS
 ITER EX DEM     TOTAL ENERGY        E CHANGE  DENSITY CHANGE     ORB. GRAD      INTEGRALS    SKIPPED
   1  0  0     -156.9157527672  -156.9157527672   0.657078668   0.000000000      158657618     181195
          ---------------START SECOND ORDER SCF---------------
   2  1  0     -157.2828819985    -0.3671292313   0.102248354   0.016620966      158677408     190183
   3  2  0     -157.3051567257    -0.0222747272   0.020615155   0.009192363      158687376     190414
   4  3  0     -157.3090344230    -0.0038776974   0.005784023   0.001248793      158693441     190082
   5  4  0     -157.3091696853    -0.0001352623   0.001624500   0.000329571      158691329     190220
   6  5  0     -157.3091769871    -0.0000073018   0.000621699   0.000116250      158690305     190278
   7  6  0     -157.3091777651    -0.0000007780   0.000116670   0.000016394      158690391     190264
   8  7  0     -157.3091777991    -0.0000000340   0.000040555   0.000004113      158690499     190256
   9  8  0     -157.3091778009    -0.0000000018   0.000010136   0.000000762      158690497     190258
  10  9  0     -157.3091778010    -0.0000000001   0.000003100   0.000000228      158690497     190258
  11 10  0     -157.3091778010    -0.0000000000   0.000000568   0.000000057      158690497     190258
  12 11  0     -157.3091778010    -0.0000000000   0.000000253   0.000000012      158690497     190258
  13 12  0     -157.3091778010    -0.0000000000   0.000000000   0.000000003      158690497     190258

          -----------------
          DENSITY CONVERGED
          -----------------
     TIME TO FORM FOCK OPERATORS=      29.7 SECONDS (       2.3 SEC/ITER)
     FOCK TIME ON FIRST ITERATION=       2.5, LAST ITERATION=       2.5
     TIME TO SOLVE SCF EQUATIONS=       0.1 SECONDS (       0.0 SEC/ITER)

 FINAL RHF ENERGY IS     -157.3091778010 AFTER  13 ITERATIONS

          ------------
          EIGENVECTORS
          ------------

                      1          2          3          4          5
                  -11.2182   -11.2177   -11.2138   -11.2137    -1.0677
                     A          A          A          A          A   
    1  C  1  S    0.045775   0.054686   0.709170  -0.707073  -0.012357
    2  C  1  S   -0.000054   0.000336   0.005315  -0.005572   0.156769
    3  C  1  S    0.007697   0.001974  -0.024135   0.029878   0.036751
    4  C  1  X    0.000073   0.000185  -0.000024   0.000080   0.043593
    5  C  1  Y   -0.000052  -0.000107   0.000026  -0.000055  -0.021898
    6  C  1  Z    0.000054   0.000086  -0.000024   0.000056   0.015773
    7  C  1  X    0.008662   0.005464  -0.004297   0.007333   0.001769
    8  C  1  Y   -0.004129  -0.002051   0.003011  -0.003979  -0.021091
    9  C  1  Z    0.004255   0.000139  -0.002475   0.003221   0.026533
   10  C  1 XX    0.000009   0.000047  -0.000019   0.000115   0.005232
   11  C  1 YY   -0.000031  -0.000023  -0.000016  -0.000069  -0.001787
   12  C  1 ZZ    0.000023  -0.000024   0.000035  -0.000046  -0.003444
   13  C  1 XY    0.000012   0.000019   0.000114  -0.000139  -0.007071
   14  C  1 XZ   -0.000038  -0.000059  -0.000110   0.000154   0.006726
   15  C  1 YZ    0.000003   0.000052   0.000075  -0.000071  -0.003165
   16  C  1  S   -0.002420  -0.004042  -0.004331   0.010107   0.070714
   17  C  1  X    0.000235  -0.000564  -0.000007   0.001951   0.030683
   18  C  1  Y   -0.000249   0.000316   0.000144  -0.001207  -0.007109
   19  C  1  Z    0.000020   0.000107  -0.000263   0.000716   0.009915
   20  C  1 XX    0.001461   0.001281  -0.000441   0.000680  -0.017865
   21  C  1 YY   -0.000605  -0.000276  -0.000020  -0.000422   0.009915
   22  C  1 ZZ   -0.000856  -0.001005   0.000461  -0.000259   0.007949
   23  C  1 XY   -0.001582  -0.001066   0.000894  -0.001207   0.000588
   24  C  1 XZ    0.001103   0.000382  -0.000866   0.001207   0.008756
   25  C  1 YZ   -0.000594  -0.000157   0.000754  -0.000532  -0.012201
   26  H  2  S   -0.000100  -0.000013   0.000269  -0.000306   0.061510
   27  H  2  S    0.002571   0.004054   0.003139  -0.003328   0.016186
   28  H  2  X   -0.000066  -0.000032  -0.000141   0.000095   0.007358
   29  H  2  Y    0.000007  -0.000007  -0.000050   0.000037   0.000381
   30  H  2  Z    0.000006   0.000053   0.000191  -0.000168  -0.006067
   31  H  2  S    0.000572  -0.000509   0.000501   0.000549   0.010042
   32  H  2  X    0.000328   0.001176   0.000953  -0.001327  -0.004456
   33  H  2  Y   -0.000001  -0.000207  -0.000239   0.000184   0.007880
   34  H  2  Z   -0.000278  -0.000448  -0.000584   0.000339  -0.012098
   35  H  3  S   -0.000021  -0.000067   0.000328  -0.000320   0.065608
   36  H  3  S    0.002363   0.001083   0.004506  -0.003965  -0.001053
   37  H  3  X   -0.000053  -0.000000   0.000116  -0.000086  -0.001454
   38  H  3  Y    0.000068   0.000005   0.000175  -0.000158  -0.009353
   39  H  3  Z   -0.000024   0.000006  -0.000023   0.000028   0.001965
   40  H  3  S    0.000085   0.000344   0.000213   0.000045   0.003585
   41  H  3  X   -0.000476  -0.000092  -0.000016  -0.000151  -0.001370
   42  H  3  Y   -0.000284  -0.000035  -0.001585   0.001381  -0.000692
   43  H  3  Z    0.000054  -0.000212   0.000383  -0.000522   0.000612
   44  H  4  S   -0.000054  -0.000046   0.000285  -0.000354   0.065705
   45  H  4  S    0.004443   0.001239   0.003566  -0.005315   0.003639
   46  H  4  X   -0.000087  -0.000015  -0.000004  -0.000011   0.003272
   47  H  4  Y    0.000004  -0.000006  -0.000142   0.000101   0.004222
   48  H  4  Z   -0.000033  -0.000024  -0.000163   0.000133   0.007629
   49  H  4  S   -0.000057   0.000286   0.000313  -0.000065   0.012285
   50  H  4  X    0.000263  -0.000122   0.000529  -0.001075  -0.005127
   51  H  4  Y    0.000635   0.000282   0.000319  -0.000502   0.003146
   52  H  4  Z    0.000946  -0.000112   0.001237  -0.001522   0.000508
   53  C  5  S    0.708400   0.708249  -0.046360   0.054855  -0.018308
   54  C  5  S    0.005468   0.006042  -0.000641   0.000455   0.234375
   55  C  5  S   -0.025613  -0.038039   0.007211  -0.005572   0.087066
   56  C  5  X    0.000054  -0.000181  -0.000244   0.000014   0.015712
   57  C  5  Y    0.000015   0.000029   0.000073  -0.000079   0.015914
   58  C  5  Z   -0.000077   0.000070  -0.000066   0.000069  -0.036040
   59  C  5  X    0.008180  -0.011237  -0.004735   0.012006  -0.033847
   60  C  5  Y   -0.004204  -0.003278   0.003299  -0.004184   0.029618
   61  C  5  Z    0.003234   0.012543  -0.002585   0.001532  -0.116999
   62  C  5 XX   -0.000169  -0.000221  -0.000058  -0.000026   0.009957
   63  C  5 YY    0.000137   0.000141  -0.000006  -0.000060  -0.007329
   64  C  5 ZZ    0.000032   0.000080   0.000063   0.000086  -0.002629
   65  C  5 XY    0.000173   0.000060   0.000004  -0.000008  -0.005672
   66  C  5 XZ    0.000078   0.000084  -0.000001  -0.000089  -0.005129
   67  C  5 YZ    0.000053   0.000014   0.000053   0.000048  -0.002804
   68  C  5  S   -0.002131  -0.000834  -0.000567   0.004094  -0.085889
   69  C  5  X    0.000301  -0.001360  -0.000539   0.004126   0.009327
   70  C  5  Y    0.000350   0.000051   0.000186  -0.000848  -0.017228
   71  C  5  Z   -0.000678  -0.000053  -0.000314  -0.000926   0.016184
   72  C  5 XX   -0.000051  -0.002314   0.002471  -0.000478  -0.023493
   73  C  5 YY    0.000440   0.002893  -0.000604  -0.000399  -0.012835
   74  C  5 ZZ   -0.000389  -0.000578  -0.001868   0.000877   0.036327
   75  C  5 XY    0.002026   0.000456  -0.000377   0.002553  -0.029933
   76  C  5 XZ   -0.001294   0.002907   0.001303  -0.002256  -0.013009
   77  C  5 YZ    0.001341   0.001169   0.000128   0.000563  -0.032826
   78  H  6  S    0.000117   0.000277  -0.000054   0.000219   0.098140
   79  H  6  S    0.002861  -0.001366   0.002770  -0.001722   0.044058
   80  H  6  X   -0.000094   0.000027   0.000089  -0.000023   0.003492
   81  H  6  Y   -0.000175  -0.000139   0.000014   0.000023   0.013077
   82  H  6  Z    0.000057  -0.000022   0.000041  -0.000012  -0.003683
   83  H  6  S    0.000512   0.000111   0.000239  -0.000069  -0.008952
   84  H  6  X    0.000213   0.000395   0.000728   0.000236  -0.004108
   85  H  6  Y    0.001306   0.000305   0.000404  -0.000342   0.004583
   86  H  6  Z   -0.000157  -0.000004   0.000215  -0.000004  -0.010862
   87  H  7  S    0.000069   0.000354  -0.000290   0.000017   0.105006
   88  H  7  S    0.004503   0.000402   0.003275  -0.002276   0.082251
   89  H  7  X   -0.000045   0.000106  -0.000045  -0.000105  -0.002585
   90  H  7  Y    0.000090   0.000070  -0.000031   0.000046  -0.006130
   91  H  7  Z    0.000168   0.000086   0.000049   0.000047  -0.012896
   92  H  7  S    0.000594   0.000450   0.000311   0.000002  -0.013368
   93  H  7  X   -0.000875   0.000194  -0.000642  -0.000408   0.012427
   94  H  7  Y   -0.000896  -0.000488  -0.000803   0.000278   0.001650
   95  H  7  Z   -0.001701  -0.000918  -0.000491   0.000356  -0.020282
   96  C  8  S    0.708407  -0.708242  -0.046232  -0.054963  -0.018308
   97  C  8  S    0.005468  -0.006042  -0.000639  -0.000457   0.234375
   98  C  8  S   -0.025614   0.038038   0.007198   0.005589   0.087066
   99  C  8  X   -0.000054  -0.000181   0.000244   0.000015  -0.015712
  100  C  8  Y    0.000015  -0.000029   0.000073   0.000080   0.015913
  101  C  8  Z    0.000077   0.000070   0.000066   0.000069   0.036041
  102  C  8  X   -0.008180  -0.011237   0.004707   0.012017   0.033848
  103  C  8  Y   -0.004204   0.003278   0.003289   0.004192   0.029612
  104  C  8  Z   -0.003234   0.012543   0.002582   0.001538   0.117000
  105  C  8 XX   -0.000170   0.000221  -0.000058   0.000026   0.009957
  106  C  8 YY    0.000137  -0.000141  -0.000006   0.000060  -0.007329
  107  C  8 ZZ    0.000032  -0.000080   0.000064  -0.000086  -0.002629
  108  C  8 XY   -0.000173   0.000060  -0.000004  -0.000008   0.005673
  109  C  8 XZ    0.000078  -0.000084  -0.000001   0.000089  -0.005129
  110  C  8 YZ   -0.000053   0.000014  -0.000054   0.000048   0.002804
  111  C  8  S   -0.002131   0.000834  -0.000557  -0.004095  -0.085889
  112  C  8  X   -0.000301  -0.001360   0.000529   0.004127  -0.009328
  113  C  8  Y    0.000350  -0.000051   0.000184   0.000849  -0.017228
  114  C  8  Z    0.000678  -0.000053   0.000316  -0.000925  -0.016185
  115  C  8 XX   -0.000051   0.002314   0.002470   0.000484  -0.023492
  116  C  8 YY    0.000440  -0.002893  -0.000604   0.000398  -0.012838
  117  C  8 ZZ   -0.000389   0.000578  -0.001866  -0.000881   0.036330
  118  C  8 XY   -0.002026   0.000456   0.000371   0.002554   0.029934
  119  C  8 XZ   -0.001294  -0.002907   0.001298   0.002259  -0.013008
  120  C  8 YZ   -0.001341   0.001169  -0.000129   0.000563   0.032824
  121  H  9  S    0.000117  -0.000277  -0.000054  -0.000219   0.098140
  122  H  9  S    0.002861   0.001366   0.002766   0.001729   0.044059
  123  H  9  X    0.000094   0.000027  -0.000089  -0.000024  -0.003492
  124  H  9  Y   -0.000175   0.000139   0.000014  -0.000023   0.013076
  125  H  9  Z   -0.000057  -0.000022  -0.000041  -0.000012   0.003684
  126  H  9  S    0.000512  -0.000111   0.000239   0.000070  -0.008952
  127  H  9  X   -0.000213   0.000395  -0.000729   0.000235   0.004108
  128  H  9  Y    0.001306  -0.000305   0.000403   0.000343   0.004583
  129  H  9  Z    0.000157  -0.000004  -0.000214  -0.000004   0.010863
  130  H 10  S    0.000069  -0.000354  -0.000290  -0.000018   0.105007
  131  H 10  S    0.004503  -0.000402   0.003270   0.002284   0.082252
  132  H 10  X    0.000045   0.000106   0.000045  -0.000105   0.002585
  133  H 10  Y    0.000090  -0.000070  -0.000031  -0.000046  -0.006131
  134  H 10  Z   -0.000168   0.000086  -0.000049   0.000047   0.012896
  135  H 10  S    0.000594  -0.000450   0.000311  -0.000001  -0.013368
  136  H 10  X    0.000875   0.000194   0.000643  -0.000406  -0.012427
  137  H 10  Y   -0.000896   0.000488  -0.000802  -0.000280   0.001649
  138  H 10  Z    0.001701  -0.000918   0.000490   0.000357   0.020282
  139  C 11  S    0.045775  -0.054686   0.707522   0.708722  -0.012357
  140  C 11  S   -0.000054  -0.000336   0.005302   0.005584   0.156769
  141  C 11  S    0.007697  -0.001974  -0.024066  -0.029934   0.036750
  142  C 11  X   -0.000073   0.000185   0.000024   0.000081  -0.043593
  143  C 11  Y   -0.000052   0.000107   0.000026   0.000055  -0.021897
  144  C 11  Z   -0.000054   0.000086   0.000024   0.000056  -0.015774
  145  C 11  X   -0.008662   0.005464   0.004280   0.007343  -0.001769
  146  C 11  Y   -0.004129   0.002051   0.003002   0.003986  -0.021090
  147  C 11  Z   -0.004256   0.000139   0.002468   0.003227  -0.026534
  148  C 11 XX    0.000009  -0.000047  -0.000019  -0.000115   0.005232
  149  C 11 YY   -0.000031   0.000023  -0.000016   0.000069  -0.001788
  150  C 11 ZZ    0.000023   0.000025   0.000035   0.000046  -0.003444
  151  C 11 XY   -0.000012   0.000019  -0.000114  -0.000139   0.007070
  152  C 11 XZ   -0.000038   0.000059  -0.000110  -0.000154   0.006726
  153  C 11 YZ   -0.000003   0.000052  -0.000075  -0.000071   0.003165
  154  C 11  S   -0.002420   0.004042  -0.004308  -0.010117   0.070715
  155  C 11  X   -0.000235  -0.000564   0.000002   0.001951  -0.030683
  156  C 11  Y   -0.000249  -0.000316   0.000141   0.001207  -0.007109
  157  C 11  Z   -0.000020   0.000107   0.000261   0.000717  -0.009915
  158  C 11 XX    0.001461  -0.001281  -0.000439  -0.000681  -0.017864
  159  C 11 YY   -0.000606   0.000276  -0.000021   0.000422   0.009914
  160  C 11 ZZ   -0.000856   0.001005   0.000460   0.000260   0.007950
  161  C 11 XY    0.001582  -0.001066  -0.000891  -0.001209  -0.000589
  162  C 11 XZ    0.001103  -0.000382  -0.000863  -0.001209   0.008756
  163  C 11 YZ    0.000594  -0.000157  -0.000752  -0.000533   0.012201
  164  H 12  S   -0.000100   0.000013   0.000269   0.000307   0.061510
  165  H 12  S    0.002571  -0.004054   0.003131   0.003335   0.016186
  166  H 12  X    0.000066  -0.000032   0.000141   0.000095  -0.007358
  167  H 12  Y    0.000007   0.000007  -0.000050  -0.000037   0.000380
  168  H 12  Z   -0.000006   0.000053  -0.000190  -0.000168   0.006067
  169  H 12  S    0.000572   0.000509   0.000503  -0.000548   0.010042
  170  H 12  X   -0.000328   0.001176  -0.000950  -0.001329   0.004456
  171  H 12  Y   -0.000001   0.000207  -0.000239  -0.000185   0.007879
  172  H 12  Z    0.000278  -0.000448   0.000583   0.000341   0.012098
  173  H 13  S   -0.000021   0.000067   0.000327   0.000320   0.065608
  174  H 13  S    0.002363  -0.001083   0.004497   0.003976  -0.001053
  175  H 13  X    0.000053  -0.000000  -0.000116  -0.000086   0.001454
  176  H 13  Y    0.000068  -0.000005   0.000175   0.000158  -0.009353
  177  H 13  Z    0.000024   0.000006   0.000022   0.000028  -0.001965
  178  H 13  S    0.000085  -0.000344   0.000213  -0.000044   0.003585
  179  H 13  X    0.000476  -0.000092   0.000016  -0.000150   0.001370
  180  H 13  Y   -0.000284   0.000035  -0.001581  -0.001385  -0.000692
  181  H 13  Z   -0.000054  -0.000212  -0.000381  -0.000522  -0.000612
  182  H 14  S   -0.000054   0.000046   0.000284   0.000354   0.065705
  183  H 14  S    0.004443  -0.001239   0.003554   0.005323   0.003639
  184  H 14  X    0.000087  -0.000015   0.000004  -0.000011  -0.003272
  185  H 14  Y    0.000004   0.000006  -0.000142  -0.000101   0.004222
  186  H 14  Z    0.000033  -0.000024   0.000163   0.000133  -0.007629
  187  H 14  S   -0.000057  -0.000286   0.000312   0.000066   0.012285
  188  H 14  X   -0.000263  -0.000122  -0.000527  -0.001076   0.005127
  189  H 14  Y    0.000635  -0.000282   0.000318   0.000503   0.003146
  190  H 14  Z   -0.000946  -0.000112  -0.001233  -0.001524  -0.000508

                      6          7          8          9         10
                   -0.9815    -0.8645    -0.7891    -0.6286    -0.5985
                     A          A          A          A          A   
    1  C  1  S    0.014251  -0.009495   0.001631   0.000390   0.000437
    2  C  1  S   -0.243520   0.216595  -0.110368  -0.012471  -0.017797
    3  C  1  S   -0.026057   0.026405   0.015851  -0.022787  -0.026474
    4  C  1  X   -0.020393  -0.062619   0.065164   0.128699   0.101323
    5  C  1  Y    0.015336   0.035419  -0.050046   0.129073  -0.187693
    6  C  1  Z   -0.015202  -0.021367   0.073831   0.002972  -0.095574
    7  C  1  X    0.019252  -0.034265   0.087546   0.028737   0.032508
    8  C  1  Y   -0.017897   0.041040  -0.040381   0.060307  -0.054745
    9  C  1  Z    0.001827  -0.043025   0.078170   0.014057  -0.006764
   10  C  1 XX   -0.002428  -0.003732   0.004028   0.004047  -0.000962
   11  C  1 YY    0.001054   0.001070  -0.002942   0.002233  -0.000649
   12  C  1 ZZ    0.001373   0.002662  -0.001086  -0.006280   0.001611
   13  C  1 XY    0.004716   0.005844  -0.007933   0.004787  -0.009462
   14  C  1 XZ   -0.004167  -0.004570   0.009222   0.005586   0.010408
   15  C  1 YZ    0.002926   0.002429  -0.006610  -0.003284   0.003476
   16  C  1  S   -0.007669   0.073848  -0.083500   0.048811  -0.012551
   17  C  1  X   -0.007826   0.022817  -0.018177   0.016117  -0.008794
   18  C  1  Y    0.009415  -0.007116   0.002999   0.006294  -0.004466
   19  C  1  Z    0.004389   0.004908   0.002360   0.006161   0.001929
   20  C  1 XX    0.006241   0.010760   0.010348  -0.005758   0.009968
   21  C  1 YY    0.002603  -0.006585  -0.006276  -0.018712  -0.003406
   22  C  1 ZZ   -0.008844  -0.004175  -0.004072   0.024471  -0.006561
   23  C  1 XY   -0.005403   0.000362  -0.005523  -0.015273   0.003841
   24  C  1 XZ   -0.006564  -0.009641   0.014498  -0.014909  -0.020192
   25  C  1 YZ   -0.000348   0.009215   0.002310   0.013378  -0.016319
   26  H  2  S   -0.115584   0.135808  -0.061162  -0.092287  -0.131051
   27  H  2  S   -0.025364   0.033381  -0.028558  -0.075195  -0.105729
   28  H  2  X   -0.012168   0.012162  -0.005102  -0.002980  -0.006576
   29  H  2  Y   -0.000111   0.000585  -0.001029   0.002960  -0.005130
   30  H  2  Z    0.010160  -0.011047   0.005889   0.004660   0.003890
   31  H  2  S   -0.005928   0.007873  -0.012342   0.007707  -0.012831
   32  H  2  X   -0.002016   0.014738  -0.017184  -0.013201  -0.011874
   33  H  2  Y   -0.003033  -0.006180   0.003481  -0.014749   0.005518
   34  H  2  Z    0.009681  -0.002266   0.001080   0.001345   0.013396
   35  H  3  S   -0.111106   0.130024  -0.094811   0.121384  -0.127914
   36  H  3  S   -0.002680   0.023386   0.006015   0.038490  -0.049075
   37  H  3  X    0.002959  -0.005046   0.003406   0.001513   0.005314
   38  H  3  Y    0.014766  -0.014704   0.009418  -0.005727   0.006513
   39  H  3  Z   -0.003271   0.003259  -0.001040   0.002052  -0.004992
   40  H  3  S   -0.006914   0.000549   0.008345  -0.007903   0.005832
   41  H  3  X    0.005794  -0.001560  -0.005117  -0.003805  -0.000742
   42  H  3  Y   -0.001343  -0.006873   0.000466   0.007649   0.006853
   43  H  3  Z    0.000989   0.000937  -0.007309  -0.003320   0.006881
   44  H  4  S   -0.112018   0.125759  -0.101786  -0.089934   0.109134
   45  H  4  S   -0.001159   0.024150   0.021831  -0.005982   0.098540
   46  H  4  X   -0.004797   0.002743  -0.002203   0.000444   0.004325
   47  H  4  Y   -0.006675   0.007828  -0.006100  -0.000595  -0.001196
   48  H  4  Z   -0.013556   0.013355  -0.008066  -0.006623   0.004256
   49  H  4  S    0.009880   0.005699   0.000425   0.007581  -0.004694
   50  H  4  X   -0.000234   0.002425   0.005259  -0.002180  -0.004401
   51  H  4  Y   -0.002315   0.001231   0.005939  -0.003609   0.010203
   52  H  4  Z   -0.001905   0.008615   0.004329   0.017633   0.012689
   53  C  5  S    0.009867   0.005463  -0.004895   0.000175  -0.000979
   54  C  5  S   -0.135997  -0.153413   0.208828   0.010731   0.041034
   55  C  5  S   -0.045434  -0.009529   0.051859   0.049073   0.015112
   56  C  5  X    0.088391  -0.097223  -0.024331   0.086612  -0.128321
   57  C  5  Y   -0.023204   0.052646  -0.026596   0.230650  -0.096378
   58  C  5  Z    0.003062  -0.002430   0.130099  -0.010452  -0.146256
   59  C  5  X    0.159141  -0.096209   0.083062   0.029956  -0.066723
   60  C  5  Y   -0.075564   0.039124  -0.028897   0.090845  -0.028433
   61  C  5  Z   -0.015961   0.016991   0.003806  -0.012474  -0.083602
   62  C  5 XX   -0.002614   0.002824  -0.007167  -0.001275  -0.002460
   63  C  5 YY   -0.001114   0.001622   0.008060  -0.009413   0.002591
   64  C  5 ZZ    0.003728  -0.004446  -0.000893   0.010688  -0.000131
   65  C  5 XY    0.008950  -0.006961   0.006044  -0.001176   0.004016
   66  C  5 XZ   -0.013407   0.014727   0.006909  -0.000549   0.002686
   67  C  5 YZ    0.003804  -0.004389   0.003885   0.001224  -0.012839
   68  C  5  S   -0.020002  -0.068230   0.042904  -0.040622  -0.138178
   69  C  5  X    0.006183   0.005553  -0.017186   0.011773  -0.038905
   70  C  5  Y   -0.013385  -0.007204   0.013979  -0.014035   0.001865
   71  C  5  Z   -0.002521   0.012435  -0.004872   0.009131   0.022904
   72  C  5 XX   -0.005348   0.020776   0.021888  -0.004049   0.012171
   73  C  5 YY    0.005817   0.006800  -0.031184   0.021584  -0.035416
   74  C  5 ZZ   -0.000468  -0.027576   0.009296  -0.017535   0.023244
   75  C  5 XY   -0.001083   0.000462   0.020507  -0.003460   0.000191
   76  C  5 XZ   -0.044901   0.023255  -0.026954   0.007744   0.027273
   77  C  5 YZ    0.021672   0.010614  -0.005684  -0.034512  -0.000492
   78  H  6  S   -0.069232  -0.098025   0.157637  -0.196168   0.106985
   79  H  6  S   -0.010058  -0.012409   0.078897  -0.078916   0.074906
   80  H  6  X   -0.002077  -0.003447   0.004135  -0.002524  -0.000804
   81  H  6  Y   -0.008015  -0.010108   0.015884  -0.010195   0.004652
   82  H  6  Z    0.002196   0.002875  -0.000717   0.003041  -0.006557
   83  H  6  S    0.002025  -0.002741   0.008405  -0.010557  -0.005696
   84  H  6  X   -0.012227   0.012925   0.014629  -0.011073   0.005206
   85  H  6  Y    0.004131  -0.003358   0.010244  -0.000478  -0.001611
   86  H  6  Z    0.002291   0.006563  -0.014144  -0.010435   0.003787
   87  H  7  S   -0.058026  -0.079735   0.182334   0.105994  -0.148141
   88  H  7  S    0.018255  -0.018029   0.098709   0.052436  -0.008214
   89  H  7  X    0.002381   0.000740  -0.006525   0.000414  -0.001594
   90  H  7  Y    0.003293   0.004906  -0.009443   0.003012   0.003732
   91  H  7  Z    0.006897   0.008485  -0.014524  -0.007354   0.006395
   92  H  7  S    0.006418  -0.011806  -0.000752  -0.004061  -0.007773
   93  H  7  X    0.000651   0.001242  -0.004886  -0.011627  -0.011746
   94  H  7  Y   -0.000027  -0.008719  -0.005944   0.001068   0.012622
   95  H  7  Z   -0.006168   0.005766  -0.028985   0.006514  -0.022949
   96  C  8  S   -0.009867   0.005463   0.004895   0.000175   0.000979
   97  C  8  S    0.135998  -0.153413  -0.208828   0.010731  -0.041034
   98  C  8  S    0.045434  -0.009529  -0.051858   0.049073  -0.015112
   99  C  8  X    0.088391   0.097223  -0.024331  -0.086612  -0.128322
  100  C  8  Y    0.023204   0.052646   0.026590   0.230650   0.096384
  101  C  8  Z    0.003063   0.002432   0.130100   0.010463  -0.146250
  102  C  8  X    0.159141   0.096208   0.083062  -0.029956  -0.066725
  103  C  8  Y    0.075564   0.039125   0.028898   0.090845   0.028436
  104  C  8  Z   -0.015958  -0.016990   0.003807   0.012478  -0.083600
  105  C  8 XX    0.002614   0.002824   0.007167  -0.001275   0.002460
  106  C  8 YY    0.001114   0.001621  -0.008060  -0.009413  -0.002590
  107  C  8 ZZ   -0.003728  -0.004446   0.000894   0.010688   0.000130
  108  C  8 XY    0.008950   0.006960   0.006045   0.001176   0.004016
  109  C  8 XZ    0.013407   0.014727  -0.006908  -0.000549  -0.002685
  110  C  8 YZ    0.003804   0.004389   0.003885  -0.001225  -0.012839
  111  C  8  S    0.020003  -0.068229  -0.042905  -0.040619   0.138180
  112  C  8  X    0.006183  -0.005553  -0.017186  -0.011773  -0.038905
  113  C  8  Y    0.013385  -0.007203  -0.013979  -0.014035  -0.001866
  114  C  8  Z   -0.002520  -0.012435  -0.004872  -0.009131   0.022904
  115  C  8 XX    0.005348   0.020776  -0.021888  -0.004049  -0.012172
  116  C  8 YY   -0.005818   0.006801   0.031185   0.021581   0.035416
  117  C  8 ZZ    0.000470  -0.027577  -0.009297  -0.017532  -0.023244
  118  C  8 XY   -0.001085  -0.000463   0.020506   0.003459   0.000192
  119  C  8 XZ    0.044901   0.023254   0.026955   0.007744  -0.027272
  120  C  8 YZ    0.021672  -0.010612  -0.005681   0.034515  -0.000489
  121  H  9  S    0.069232  -0.098025  -0.157637  -0.196168  -0.106985
  122  H  9  S    0.010058  -0.012410  -0.078897  -0.078917  -0.074907
  123  H  9  X   -0.002077   0.003447   0.004135   0.002524  -0.000804
  124  H  9  Y    0.008014  -0.010108  -0.015884  -0.010195  -0.004652
  125  H  9  Z    0.002196  -0.002875  -0.000718  -0.003041  -0.006557
  126  H  9  S   -0.002025  -0.002740  -0.008405  -0.010558   0.005696
  127  H  9  X   -0.012227  -0.012925   0.014629   0.011073   0.005206
  128  H  9  Y   -0.004131  -0.003358  -0.010243  -0.000479   0.001611
  129  H  9  Z    0.002291  -0.006564  -0.014144   0.010435   0.003787
  130  H 10  S    0.058026  -0.079734  -0.182334   0.105995   0.148140
  131  H 10  S   -0.018255  -0.018028  -0.098709   0.052435   0.008212
  132  H 10  X    0.002381  -0.000740  -0.006525  -0.000414  -0.001594
  133  H 10  Y   -0.003294   0.004907   0.009444   0.003012  -0.003732
  134  H 10  Z    0.006897  -0.008485  -0.014524   0.007354   0.006395
  135  H 10  S   -0.006418  -0.011806   0.000752  -0.004061   0.007773
  136  H 10  X    0.000651  -0.001242  -0.004886   0.011628  -0.011746
  137  H 10  Y    0.000027  -0.008719   0.005945   0.001068  -0.012621
  138  H 10  Z   -0.006168  -0.005766  -0.028984  -0.006514  -0.022950
  139  C 11  S   -0.014251  -0.009495  -0.001631   0.000390  -0.000437
  140  C 11  S    0.243520   0.216595   0.110368  -0.012471   0.017797
  141  C 11  S    0.026057   0.026406  -0.015852  -0.022786   0.026474
  142  C 11  X   -0.020393   0.062619   0.065164  -0.128700   0.101322
  143  C 11  Y   -0.015335   0.035418   0.050043   0.129073   0.187696
  144  C 11  Z   -0.015203   0.021369   0.073833  -0.002966  -0.095564
  145  C 11  X    0.019252   0.034265   0.087546  -0.028738   0.032507
  146  C 11  Y    0.017897   0.041037   0.040378   0.060307   0.054744
  147  C 11  Z    0.001828   0.043026   0.078172  -0.014055  -0.006761
  148  C 11 XX    0.002428  -0.003732  -0.004028   0.004047   0.000962
  149  C 11 YY   -0.001055   0.001070   0.002943   0.002233   0.000649
  150  C 11 ZZ   -0.001373   0.002662   0.001085  -0.006280  -0.001610
  151  C 11 XY    0.004716  -0.005844  -0.007933  -0.004787  -0.009461
  152  C 11 XZ    0.004167  -0.004570  -0.009223   0.005586  -0.010408
  153  C 11 YZ    0.002926  -0.002429  -0.006610   0.003285   0.003476
  154  C 11  S    0.007668   0.073848   0.083502   0.048810   0.012549
  155  C 11  X   -0.007826  -0.022817  -0.018177  -0.016117  -0.008793
  156  C 11  Y   -0.009415  -0.007116  -0.002999   0.006295   0.004466
  157  C 11  Z    0.004389  -0.004909   0.002360  -0.006160   0.001930
  158  C 11 XX   -0.006241   0.010759  -0.010348  -0.005759  -0.009967
  159  C 11 YY   -0.002603  -0.006584   0.006275  -0.018711   0.003407
  160  C 11 ZZ    0.008844  -0.004176   0.004072   0.024470   0.006560
  161  C 11 XY   -0.005404  -0.000361  -0.005522   0.015274   0.003840
  162  C 11 XZ    0.006564  -0.009641  -0.014498  -0.014908   0.020192
  163  C 11 YZ   -0.000349  -0.009216   0.002309  -0.013380  -0.016318
  164  H 12  S    0.115584   0.135808   0.061163  -0.092287   0.131049
  165  H 12  S    0.025364   0.033381   0.028557  -0.075194   0.105729
  166  H 12  X   -0.012168  -0.012162  -0.005102   0.002980  -0.006576
  167  H 12  Y    0.000110   0.000584   0.001029   0.002960   0.005130
  168  H 12  Z    0.010160   0.011047   0.005889  -0.004660   0.003891
  169  H 12  S    0.005928   0.007873   0.012342   0.007707   0.012831
  170  H 12  X   -0.002016  -0.014738  -0.017184   0.013201  -0.011874
  171  H 12  Y    0.003032  -0.006180  -0.003481  -0.014749  -0.005519
  172  H 12  Z    0.009681   0.002266   0.001080  -0.001346   0.013395
  173  H 13  S    0.111106   0.130024   0.094811   0.121384   0.127914
  174  H 13  S    0.002681   0.023386  -0.006014   0.038490   0.049076
  175  H 13  X    0.002959   0.005046   0.003406  -0.001513   0.005314
  176  H 13  Y   -0.014765  -0.014704  -0.009418  -0.005727  -0.006513
  177  H 13  Z   -0.003271  -0.003260  -0.001040  -0.002052  -0.004992
  178  H 13  S    0.006914   0.000548  -0.008345  -0.007903  -0.005832
  179  H 13  X    0.005794   0.001560  -0.005117   0.003805  -0.000742
  180  H 13  Y    0.001343  -0.006873  -0.000466   0.007649  -0.006853
  181  H 13  Z    0.000989  -0.000937  -0.007309   0.003320   0.006880
  182  H 14  S    0.112018   0.125759   0.101786  -0.089935  -0.109132
  183  H 14  S    0.001159   0.024150  -0.021831  -0.005982  -0.098539
  184  H 14  X   -0.004797  -0.002743  -0.002203  -0.000444   0.004325
  185  H 14  Y    0.006676   0.007829   0.006101  -0.000595   0.001196
  186  H 14  Z   -0.013556  -0.013354  -0.008066   0.006623   0.004256
  187  H 14  S   -0.009880   0.005698  -0.000425   0.007581   0.004694
  188  H 14  X   -0.000234  -0.002425   0.005259   0.002180  -0.004401
  189  H 14  Y    0.002315   0.001231  -0.005940  -0.003608  -0.010203
  190  H 14  Z   -0.001905  -0.008615   0.004328  -0.017633   0.012689

                     11         12         13         14         15
                   -0.5803    -0.5509    -0.5094    -0.5092    -0.4653
                     A          A          A          A          A   
    1  C  1  S    0.000591   0.000446  -0.000261   0.000193  -0.000039
    2  C  1  S    0.007393   0.003682   0.010985  -0.013504  -0.037738
    3  C  1  S    0.018354   0.024663   0.046786  -0.034147  -0.111991
    4  C  1  X    0.049588   0.257098   0.066751  -0.037240  -0.132509
    5  C  1  Y   -0.023830   0.143440  -0.033736   0.270099   0.016713
    6  C  1  Z   -0.246773  -0.053352   0.272851  -0.010724  -0.160843
    7  C  1  X    0.014869   0.079008   0.056632  -0.057966  -0.137564
    8  C  1  Y   -0.002852  -0.000959  -0.032580   0.060921   0.059134
    9  C  1  Z   -0.055175   0.011507   0.062583  -0.031264  -0.050804
   10  C  1 XX   -0.005998  -0.003426   0.014801  -0.009497  -0.012520
   11  C  1 YY    0.006256   0.013956  -0.005538   0.018449  -0.002153
   12  C  1 ZZ   -0.000258  -0.010530  -0.009264  -0.008952   0.014674
   13  C  1 XY    0.002357  -0.001312  -0.011223   0.006448   0.011503
   14  C  1 XZ    0.006606   0.011627  -0.009279  -0.010411   0.005930
   15  C  1 YZ    0.009918  -0.007622  -0.009588  -0.007897   0.006779
   16  C  1  S    0.032294   0.037384  -0.025351   0.069274   0.151535
   17  C  1  X    0.003871   0.008471   0.003292   0.006552   0.030110
   18  C  1  Y   -0.008390  -0.003603  -0.005378  -0.003843  -0.008943
   19  C  1  Z   -0.002490   0.007439  -0.009857   0.008521   0.006507
   20  C  1 XX    0.012302   0.003514  -0.010035  -0.009542  -0.002005
   21  C  1 YY   -0.015992  -0.024028   0.010963  -0.005353  -0.000683
   22  C  1 ZZ    0.003691   0.020514  -0.000928   0.014895   0.002687
   23  C  1 XY    0.009125  -0.014505   0.004885  -0.017501   0.011641
   24  C  1 XZ   -0.013171  -0.009128   0.017212  -0.008079  -0.016549
   25  C  1 YZ   -0.022487   0.001787   0.013927   0.017561  -0.010465
   26  H  2  S   -0.169281  -0.215347   0.128725   0.007303  -0.029476
   27  H  2  S   -0.115478  -0.176203   0.161011  -0.025516  -0.125095
   28  H  2  X   -0.009506  -0.007308   0.009322   0.000149  -0.005041
   29  H  2  Y   -0.000607   0.004702  -0.000657   0.008197   0.000784
   30  H  2  Z    0.002020   0.009380   0.002736  -0.000787  -0.004768
   31  H  2  S    0.004015  -0.007905   0.014268   0.002131   0.006779
   32  H  2  X   -0.005649  -0.025076   0.020882  -0.006295  -0.024955
   33  H  2  Y    0.004166  -0.003807   0.000555  -0.010642   0.003827
   34  H  2  Z    0.012399   0.015312  -0.021399   0.001395   0.020238
   35  H  3  S    0.037938   0.188406  -0.064798   0.237719  -0.003022
   36  H  3  S    0.025267   0.195346  -0.054944   0.232533  -0.036291
   37  H  3  X    0.000712   0.003870   0.002823  -0.003294  -0.004032
   38  H  3  Y   -0.004165  -0.010225   0.005068  -0.010621   0.000556
   39  H  3  Z   -0.006199   0.001674   0.007020   0.004666  -0.005164
   40  H  3  S    0.001389   0.003631   0.000101   0.010707   0.008478
   41  H  3  X   -0.007591  -0.007945  -0.003249   0.004734   0.002412
   42  H  3  Y   -0.003426  -0.035662   0.009263  -0.045891   0.009620
   43  H  3  Z    0.014767   0.010107  -0.009471   0.007291   0.005956
   44  H  4  S    0.186417  -0.081738  -0.218497  -0.111064   0.153307
   45  H  4  S    0.123035  -0.057881  -0.220337  -0.140008   0.167423
   46  H  4  X    0.006366   0.005399  -0.003928  -0.003546   0.000628
   47  H  4  Y    0.006268   0.001247  -0.008737   0.005067   0.004174
   48  H  4  Z    0.006907  -0.008074  -0.007469  -0.007318   0.004446
   49  H  4  S   -0.005506   0.002219  -0.019669  -0.004442   0.009446
   50  H  4  X    0.006727  -0.010983  -0.013975  -0.015504   0.014959
   51  H  4  Y    0.005138  -0.012568  -0.010306  -0.013557   0.008343
   52  H  4  Z    0.016506  -0.002762  -0.040778  -0.018977   0.031410
   53  C  5  S    0.000876  -0.002213   0.000443  -0.000202   0.000046
   54  C  5  S   -0.000731   0.037993  -0.003548  -0.013552  -0.028754
   55  C  5  S    0.044050   0.055088   0.028452  -0.035790  -0.106366
   56  C  5  X    0.124827  -0.044384  -0.132635   0.083605   0.066687
   57  C  5  Y   -0.049578   0.095484   0.060577  -0.180740   0.007723
   58  C  5  Z   -0.166895  -0.051679  -0.145217   0.024852   0.276567
   59  C  5  X    0.075016   0.050707  -0.101350   0.073777  -0.028780
   60  C  5  Y   -0.039109   0.089157   0.046694  -0.028676  -0.011224
   61  C  5  Z   -0.083704  -0.062144  -0.019451   0.034181   0.053719
   62  C  5 XX    0.003931  -0.006932   0.006305  -0.012128  -0.023528
   63  C  5 YY   -0.005202   0.003193  -0.002719   0.014822   0.001123
   64  C  5 ZZ    0.001271   0.003739  -0.003586  -0.002694   0.022405
   65  C  5 XY    0.000946  -0.011024  -0.013147  -0.001862   0.011916
   66  C  5 XZ   -0.004782   0.005215  -0.005885  -0.011879   0.005238
   67  C  5 YZ   -0.005355  -0.003146  -0.002499  -0.000086   0.012503
   68  C  5  S   -0.018826  -0.137491   0.111754  -0.077155  -0.171924
   69  C  5  X    0.017833  -0.014581   0.005074   0.032383   0.033899
   70  C  5  Y    0.003860  -0.007441   0.024016  -0.020541  -0.034882
   71  C  5  Z    0.000852   0.020626  -0.018386   0.014657   0.055753
   72  C  5 XX   -0.025716  -0.008934  -0.003947  -0.001780   0.004966
   73  C  5 YY   -0.001091   0.011309   0.007314   0.009171  -0.009897
   74  C  5 ZZ    0.026807  -0.002375  -0.003367  -0.007391   0.004932
   75  C  5 XY    0.024664   0.005273  -0.007878  -0.015091  -0.029513
   76  C  5 XZ    0.011763  -0.016336   0.004232  -0.008925   0.004006
   77  C  5 YZ    0.023712  -0.017548   0.009848   0.003399  -0.048336
   78  H  6  S   -0.020949  -0.055143  -0.057977   0.143916   0.018597
   79  H  6  S   -0.024115   0.049241  -0.029984   0.151216   0.021755
   80  H  6  X    0.002607  -0.003688  -0.004880   0.003334   0.002489
   81  H  6  Y   -0.003100  -0.001070  -0.003294   0.006924   0.002699
   82  H  6  Z   -0.002992  -0.000599  -0.003274  -0.002866   0.007201
   83  H  6  S    0.003328  -0.008193   0.008359  -0.005774  -0.009616
   84  H  6  X   -0.000798  -0.002763   0.004478  -0.008395  -0.006785
   85  H  6  Y   -0.007958   0.023906  -0.002460   0.035476  -0.002859
   86  H  6  Z    0.016175  -0.015190   0.004097  -0.009519  -0.022090
   87  H  7  S   -0.117308   0.012202  -0.119925  -0.047277   0.255061
   88  H  7  S   -0.105199   0.019289  -0.152513  -0.068432   0.332948
   89  H  7  X    0.004867  -0.001414   0.001064   0.003947  -0.002000
   90  H  7  Y    0.003537   0.001228   0.006401  -0.004126  -0.007024
   91  H  7  Z    0.004651  -0.001882   0.005813   0.004472  -0.008995
   92  H  7  S   -0.006364  -0.004978  -0.002857   0.001536  -0.010947
   93  H  7  X   -0.014193   0.005584   0.014129   0.007545  -0.015996
   94  H  7  Y    0.006449  -0.002370   0.006310   0.002238  -0.007063
   95  H  7  Z    0.015970   0.005963   0.034167   0.020364  -0.063569
   96  C  8  S    0.000876   0.002213  -0.000443  -0.000202   0.000046
   97  C  8  S   -0.000731  -0.037992   0.003540  -0.013554  -0.028755
   98  C  8  S    0.044051  -0.055088  -0.028471  -0.035775  -0.106369
   99  C  8  X   -0.124825  -0.044384  -0.132680  -0.083533  -0.066688
  100  C  8  Y   -0.049587  -0.095481  -0.060669  -0.180707   0.007727
  101  C  8  Z    0.166895  -0.051683  -0.145232  -0.024780  -0.276568
  102  C  8  X   -0.075016   0.050708  -0.101391  -0.073721   0.028779
  103  C  8  Y   -0.039112  -0.089154  -0.046708  -0.028648  -0.011222
  104  C  8  Z    0.083704  -0.062148  -0.019472  -0.034172  -0.053721
  105  C  8 XX    0.003931   0.006932  -0.006311  -0.012124  -0.023529
  106  C  8 YY   -0.005203  -0.003193   0.002727   0.014821   0.001125
  107  C  8 ZZ    0.001272  -0.003739   0.003584  -0.002696   0.022404
  108  C  8 XY   -0.000945  -0.011023  -0.013146   0.001870  -0.011917
  109  C  8 XZ   -0.004782  -0.005216   0.005878  -0.011882   0.005237
  110  C  8 YZ    0.005355  -0.003146  -0.002499   0.000088  -0.012503
  111  C  8  S   -0.018831   0.137490  -0.111794  -0.077093  -0.171929
  112  C  8  X   -0.017833  -0.014581   0.005056  -0.032386  -0.033898
  113  C  8  Y    0.003859   0.007440  -0.024026  -0.020527  -0.034879
  114  C  8  Z   -0.000852   0.020626  -0.018394  -0.014647  -0.055755
  115  C  8 XX   -0.025716   0.008934   0.003946  -0.001782   0.004967
  116  C  8 YY   -0.001090  -0.011308  -0.007310   0.009176  -0.009903
  117  C  8 ZZ    0.026805   0.002374   0.003364  -0.007393   0.004937
  118  C  8 XY   -0.024665   0.005273  -0.007870   0.015096   0.029513
  119  C  8 XZ    0.011762   0.016336  -0.004237  -0.008921   0.004009
  120  C  8 YZ   -0.023712  -0.017548   0.009846  -0.003404   0.048335
  121  H  9  S   -0.020948   0.055143   0.058056   0.143885   0.018605
  122  H  9  S   -0.024114  -0.049241   0.030067   0.151201   0.021767
  123  H  9  X   -0.002607  -0.003688  -0.004882  -0.003331  -0.002490
  124  H  9  Y   -0.003100   0.001070   0.003298   0.006922   0.002700
  125  H  9  Z    0.002992  -0.000599  -0.003272   0.002868  -0.007201
  126  H  9  S    0.003328   0.008193  -0.008362  -0.005770  -0.009616
  127  H  9  X    0.000797  -0.002762   0.004483   0.008392   0.006785
  128  H  9  Y   -0.007958  -0.023905   0.002479   0.035475  -0.002858
  129  H  9  Z   -0.016176  -0.015191   0.004102   0.009518   0.022091
  130  H 10  S   -0.117309  -0.012202   0.119897  -0.047343   0.255057
  131  H 10  S   -0.105198  -0.019288   0.152473  -0.068517   0.332942
  132  H 10  X   -0.004867  -0.001415   0.001062  -0.003948   0.002000
  133  H 10  Y    0.003537  -0.001228  -0.006403  -0.004122  -0.007025
  134  H 10  Z   -0.004650  -0.001882   0.005810  -0.004475   0.008994
  135  H 10  S   -0.006364   0.004978   0.002858   0.001535  -0.010948
  136  H 10  X    0.014193   0.005584   0.014125  -0.007553   0.015996
  137  H 10  Y    0.006450   0.002370  -0.006310   0.002242  -0.007065
  138  H 10  Z   -0.015969   0.005964   0.034155  -0.020383   0.063568
  139  C 11  S    0.000591  -0.000446   0.000261   0.000193  -0.000039
  140  C 11  S    0.007393  -0.003683  -0.010992  -0.013498  -0.037739
  141  C 11  S    0.018354  -0.024663  -0.046804  -0.034123  -0.111994
  142  C 11  X   -0.049589   0.257098   0.066771   0.037204   0.132511
  143  C 11  Y   -0.023843  -0.143437   0.033872   0.270081   0.016712
  144  C 11  Z    0.246774  -0.053358   0.272857   0.010587   0.160844
  145  C 11  X   -0.014870   0.079008   0.056663   0.057936   0.137566
  146  C 11  Y   -0.002856   0.000959   0.032610   0.060902   0.059134
  147  C 11  Z    0.055175   0.011507   0.062601   0.031233   0.050807
  148  C 11 XX   -0.005998   0.003426  -0.014806  -0.009489  -0.012521
  149  C 11 YY    0.006256  -0.013956   0.005548   0.018445  -0.002152
  150  C 11 ZZ   -0.000259   0.010529   0.009258  -0.008956   0.014673
  151  C 11 XY   -0.002358  -0.001311  -0.011227  -0.006442  -0.011504
  152  C 11 XZ    0.006606  -0.011627   0.009273  -0.010417   0.005930
  153  C 11 YZ   -0.009918  -0.007624  -0.009584   0.007904  -0.006780
  154  C 11  S    0.032294  -0.037383   0.025388   0.069261   0.151535
  155  C 11  X   -0.003871   0.008471   0.003289  -0.006554  -0.030109
  156  C 11  Y   -0.008390   0.003602   0.005376  -0.003845  -0.008943
  157  C 11  Z    0.002490   0.007439  -0.009861  -0.008515  -0.006507
  158  C 11 XX    0.012302  -0.003514   0.010030  -0.009548  -0.002005
  159  C 11 YY   -0.015994   0.024028  -0.010967  -0.005346  -0.000684
  160  C 11 ZZ    0.003692  -0.020514   0.000937   0.014893   0.002689
  161  C 11 XY   -0.009124  -0.014506   0.004895   0.017498  -0.011640
  162  C 11 XZ   -0.013172   0.009127  -0.017216  -0.008069  -0.016550
  163  C 11 YZ    0.022486   0.001790   0.013917  -0.017570   0.010464
  164  H 12  S   -0.169283   0.215346  -0.128721   0.007374  -0.029475
  165  H 12  S   -0.115480   0.176202  -0.161024  -0.025427  -0.125096
  166  H 12  X    0.009506  -0.007308   0.009322  -0.000154   0.005041
  167  H 12  Y   -0.000607  -0.004702   0.000662   0.008197   0.000784
  168  H 12  Z   -0.002020   0.009380   0.002737   0.000786   0.004768
  169  H 12  S    0.004014   0.007905  -0.014267   0.002139   0.006778
  170  H 12  X    0.005649  -0.025076   0.020885   0.006284   0.024955
  171  H 12  Y    0.004167   0.003806  -0.000559  -0.010642   0.003828
  172  H 12  Z   -0.012399   0.015312  -0.021400  -0.001384  -0.020239
  173  H 13  S    0.037937  -0.188406   0.064928   0.237684  -0.003017
  174  H 13  S    0.025267  -0.195346   0.055072   0.232503  -0.036283
  175  H 13  X   -0.000712   0.003870   0.002825   0.003292   0.004032
  176  H 13  Y   -0.004166   0.010225  -0.005074  -0.010618   0.000556
  177  H 13  Z    0.006199   0.001675   0.007017  -0.004670   0.005164
  178  H 13  S    0.001389  -0.003631  -0.000096   0.010707   0.008479
  179  H 13  X    0.007591  -0.007945  -0.003251  -0.004732  -0.002411
  180  H 13  Y   -0.003425   0.035662  -0.009288  -0.045886   0.009619
  181  H 13  Z   -0.014768   0.010108  -0.009475  -0.007288  -0.005956
  182  H 14  S    0.186418   0.081739   0.218434  -0.111184   0.153305
  183  H 14  S    0.123036   0.057882   0.220259  -0.140130   0.167419
  184  H 14  X   -0.006366   0.005399  -0.003926   0.003549  -0.000628
  185  H 14  Y    0.006268  -0.001247   0.008740   0.005062   0.004174
  186  H 14  Z   -0.006907  -0.008074  -0.007465   0.007322  -0.004446
  187  H 14  S   -0.005506  -0.002219   0.019667  -0.004453   0.009445
  188  H 14  X   -0.006727  -0.010983  -0.013966   0.015511  -0.014959
  189  H 14  Y    0.005139   0.012568   0.010300  -0.013563   0.008344
  190  H 14  Z   -0.016506  -0.002762  -0.040767   0.018999  -0.031409

                     16         17         18         19         20
                   -0.4548    -0.4537     0.0386     0.0457     0.0485
                     A          A          A          A          A   
    1  C  1  S   -0.000140   0.000658  -0.014135  -0.002081   0.001266
    2  C  1  S    0.024169  -0.025753   0.009439   0.022448  -0.024752
    3  C  1  S    0.085412  -0.031670   0.647236   0.121495  -0.131953
    4  C  1  X    0.051628  -0.225806  -0.027543  -0.027099   0.006389
    5  C  1  Y   -0.175068   0.009908   0.017316   0.001011   0.005748
    6  C  1  Z   -0.019551   0.053830  -0.012999   0.010955   0.025378
    7  C  1  X    0.079561  -0.094686  -0.244433  -0.460421   0.393435
    8  C  1  Y   -0.068494   0.044371   0.125039   0.163022  -0.217272
    9  C  1  Z    0.017660  -0.022378  -0.109115   0.140717   0.461781
   10  C  1 XX    0.008588   0.011928  -0.001442   0.000524   0.004695
   11  C  1 YY   -0.016377  -0.012740   0.000031  -0.001216  -0.002383
   12  C  1 ZZ    0.007789   0.000811   0.001411   0.000692  -0.002312
   13  C  1 XY   -0.001060   0.003852   0.002175   0.001639  -0.004751
   14  C  1 XZ    0.012030  -0.018178   0.000007  -0.004516   0.001085
   15  C  1 YZ    0.009027   0.008608   0.000320   0.000534  -0.004497
   16  C  1  S    0.006468   0.022794   3.195474   0.966170  -1.391434
   17  C  1  X    0.010034   0.002786   0.021479  -1.133723   0.202860
   18  C  1  Y    0.010217   0.004476  -0.070582   0.287966   0.015861
   19  C  1  Z    0.013711  -0.004849   0.067419   0.637801   1.055344
   20  C  1 XX    0.001482  -0.007100  -0.036091  -0.006489   0.053930
   21  C  1 YY    0.017258   0.015191   0.007905  -0.032241  -0.033184
   22  C  1 ZZ   -0.018740  -0.008091   0.028186   0.038729  -0.020746
   23  C  1 XY   -0.004589   0.009064   0.035839   0.065147  -0.087952
   24  C  1 XZ   -0.001491   0.011733  -0.066297  -0.086665   0.091886
   25  C  1 YZ   -0.015043   0.010229   0.041032   0.013656  -0.054025
   26  H  2  S   -0.033842   0.202600   0.002260   0.008048  -0.001073
   27  H  2  S    0.003934   0.205384  -0.661619  -0.903178   0.208695
   28  H  2  X   -0.001158   0.005728   0.000236   0.000298  -0.003171
   29  H  2  Y   -0.005522  -0.000645  -0.000418  -0.001233   0.001208
   30  H  2  Z    0.001419  -0.006741   0.000662   0.000804   0.000401
   31  H  2  S    0.003377   0.019872  -0.900313  -3.041155  -0.407512
   32  H  2  X    0.004671   0.029465  -0.117034  -0.151500   0.004797
   33  H  2  Y    0.005673  -0.001145  -0.001736   0.010399   0.002844
   34  H  2  Z   -0.002219  -0.017775   0.060466   0.106774  -0.065751
   35  H  3  S   -0.148938  -0.077204   0.009889  -0.000152  -0.000420
   36  H  3  S   -0.192715  -0.128884  -0.516837  -0.021262   0.510852
   37  H  3  X    0.002351  -0.006349   0.000097  -0.000636  -0.001704
   38  H  3  Y    0.004927   0.004851   0.000103  -0.001798   0.000159
   39  H  3  Z   -0.003464   0.000530   0.000290   0.000099  -0.000354
   40  H  3  S   -0.019427  -0.009901  -0.326457   0.038220   0.683893
   41  H  3  X    0.005098   0.007201   0.005276   0.027921  -0.020529
   42  H  3  Y    0.037817   0.024229   0.096468  -0.009989  -0.094238
   43  H  3  Z   -0.010864  -0.011942  -0.032682  -0.009564  -0.035230
   44  H  4  S    0.106207  -0.007335   0.006949   0.001497  -0.008631
   45  H  4  S    0.167615  -0.035154  -0.588877   0.080353   0.775130
   46  H  4  X    0.004431  -0.006506  -0.000119   0.001058  -0.001946
   47  H  4  Y   -0.002747  -0.000054  -0.000884   0.001125   0.001901
   48  H  4  Z    0.005749   0.001944  -0.000763   0.003299  -0.000009
   49  H  4  S    0.020112  -0.004827  -0.659168   0.250241   2.542508
   50  H  4  X    0.013835   0.004563  -0.066893   0.055131   0.081616
   51  H  4  Y    0.017781  -0.001786  -0.021113  -0.006268   0.062942
   52  H  4  Z    0.027118  -0.007914  -0.089941   0.008502   0.115190
   53  C  5  S   -0.000613  -0.001485  -0.010254  -0.002181   0.002622
   54  C  5  S    0.005747   0.027073   0.000167   0.007198   0.023623
   55  C  5  S    0.051424   0.051590   0.419937   0.074873   0.017515
   56  C  5  X    0.006636   0.305068   0.003265   0.011085  -0.005354
   57  C  5  Y    0.264816   0.024268  -0.021521  -0.013959   0.011898
   58  C  5  Z    0.015747  -0.113473   0.037015   0.018771   0.012258
   59  C  5  X    0.023477   0.168328  -0.125962  -0.403961   0.459102
   60  C  5  Y    0.013417  -0.008133  -0.053658   0.121868  -0.217748
   61  C  5  Z   -0.024253  -0.057777   0.076565  -0.017629   0.231718
   62  C  5 XX    0.008215   0.009281  -0.002103   0.002616  -0.002807
   63  C  5 YY   -0.019240  -0.015051   0.000462   0.002541   0.001227
   64  C  5 ZZ    0.011025   0.005770   0.001641  -0.005157   0.001580
   65  C  5 XY   -0.014166   0.004482  -0.002097  -0.002333   0.002314
   66  C  5 XZ    0.011161  -0.022538   0.001407   0.006036  -0.003748
   67  C  5 YZ    0.017493   0.006901   0.000104  -0.001806   0.005187
   68  C  5  S    0.123693  -0.029197   0.234894  -3.994714   0.934362
   69  C  5  X    0.026856   0.013415   0.220760  -2.080084   0.472804
   70  C  5  Y   -0.025495  -0.007018  -0.361512  -0.394804  -0.676269
   71  C  5  Z   -0.034737  -0.008290   0.375700   1.316586   0.389520
   72  C  5 XX   -0.017284   0.024313   0.012527   0.028795  -0.085477
   73  C  5 YY    0.050787  -0.007030   0.012832  -0.029667   0.012906
   74  C  5 ZZ   -0.033502  -0.017283  -0.025360   0.000872   0.072571
   75  C  5 XY   -0.001155   0.006360   0.020684   0.007778   0.135091
   76  C  5 XZ   -0.038867  -0.011560  -0.001639   0.091932  -0.062306
   77  C  5 YZ    0.002268   0.000128   0.020367  -0.066447  -0.026997
   78  H  6  S   -0.258504  -0.109974   0.007519   0.007868  -0.001914
   79  H  6  S   -0.366274  -0.088460  -0.444816   0.026573  -0.401804
   80  H  6  X   -0.004622   0.006333   0.001348   0.003055  -0.000895
   81  H  6  Y   -0.009061  -0.007616   0.001452   0.000830   0.000531
   82  H  6  Z    0.006196  -0.000884   0.000873   0.000367  -0.000700
   83  H  6  S   -0.016924  -0.005811  -0.760688  -1.277818  -1.184777
   84  H  6  X   -0.021190  -0.000020   0.016095   0.058454  -0.063725
   85  H  6  Y   -0.060758  -0.015948  -0.103817  -0.032456  -0.088259
   86  H  6  Z    0.025805   0.005024   0.047563  -0.040907  -0.062770
   87  H  7  S    0.150777  -0.000068   0.015740  -0.002840   0.004233
   88  H  7  S    0.227529   0.046586  -0.259286   0.166977  -0.416514
   89  H  7  X   -0.001751   0.007716   0.000050   0.000512  -0.001556
   90  H  7  Y    0.003624   0.000971  -0.001804  -0.001847   0.002815
   91  H  7  Z   -0.008406  -0.003173  -0.000400  -0.002592  -0.001094
   92  H  7  S    0.022147   0.003712  -0.142085  -0.973486  -1.178501
   93  H  7  X   -0.000696  -0.003486   0.009971   0.002356  -0.048393
   94  H  7  Y   -0.037325  -0.005310  -0.019013  -0.002721   0.064707
[...]
    4             0.183538   0.030498   0.255196   0.062763   0.139119
    5             0.291318   0.116345   0.204335   0.179598   0.248654
    6            -0.001826   0.004483   0.014348   0.107620  -0.007465
    7             0.065838  -0.001892   0.071202   0.009778   0.360195
    8             0.291321   0.116344   0.204455   0.179476   0.248656
    9            -0.001827   0.004483   0.014391   0.107579  -0.007463
   10             0.065839  -0.001892   0.071174   0.009804   0.360184
   11             0.307013   0.398176   0.347828   0.339094   0.262723
   12             0.153906   0.256324   0.086777  -0.004143  -0.000471
   13             0.000213   0.196064   0.020407   0.305200  -0.002746
   14             0.183541   0.030499   0.255053   0.062903   0.139116

                     16         17

                  2.000000   2.000000

    1             0.137711   0.235660
    2             0.003123   0.204348
    3             0.127291   0.028211
    4             0.048625  -0.001939
    5             0.233465   0.474346
    6             0.343401   0.060908
    7             0.106358  -0.001511
    8             0.233475   0.474336
    9             0.343459   0.060844
   10             0.106370  -0.001509
   11             0.137667   0.235698
   12             0.003109   0.204363
   13             0.127316   0.028184
   14             0.048630  -0.001938

               ----- POPULATIONS IN EACH AO -----
                             MULLIKEN      LOWDIN
              1  C  1  S      2.00790     1.81596
              2  C  1  S      0.65410     0.42144
              3  C  1  S      0.06905     0.18269
              4  C  1  X      0.67921     0.58122
              5  C  1  Y      0.67951     0.58015
              6  C  1  Z      0.68081     0.58024
              7  C  1  X      0.26591     0.28218
              8  C  1  Y      0.20867     0.31122
              9  C  1  Z      0.19409     0.31057
             10  C  1 XX      0.01033     0.11345
             11  C  1 YY      0.01768     0.11829
             12  C  1 ZZ      0.00937     0.10858
             13  C  1 XY      0.01929     0.01729
             14  C  1 XZ      0.00984     0.03807
             15  C  1 YZ      0.00000     0.01983
             16  C  1  S      0.18326     0.05008
             17  C  1  X      0.02539     0.03607
             18  C  1  Y      0.00372     0.02888
             19  C  1  Z     -0.00274     0.02975
             20  C  1 XX     -0.01331     0.07676
             21  C  1 YY     -0.02386     0.07332
             22  C  1 ZZ     -0.00346     0.05411
             23  C  1 XY     -0.00250     0.04916
             24  C  1 XZ     -0.01029     0.10300
             25  C  1 YZ      0.00000     0.04646
             26  H  2  S      0.77631     0.53846
             27  H  2  S      0.36791     0.15847
             28  H  2  X      0.01383     0.02619
             29  H  2  Y      0.00507     0.01336
             30  H  2  Z      0.01086     0.02180
             31  H  2  S      0.01937     0.02030
             32  H  2  X     -0.01954     0.06597
             33  H  2  Y     -0.02067     0.05953
             34  H  2  Z     -0.01258     0.06973
             35  H  3  S      0.77580     0.54203
             36  H  3  S      0.31603     0.15598
             37  H  3  X      0.00526     0.01398
             38  H  3  Y      0.01863     0.03317
             39  H  3  Z      0.00587     0.01464
             40  H  3  S      0.01095     0.02102
             41  H  3  X     -0.00916     0.05515
             42  H  3  Y     -0.03251     0.08349
             43  H  3  Z     -0.02342     0.06064
             44  H  4  S      0.77569     0.53718
             45  H  4  S      0.31225     0.15543
             46  H  4  X      0.00591     0.01498
             47  H  4  Y      0.00799     0.01733
             48  H  4  Z      0.01591     0.02891
             49  H  4  S      0.00909     0.02080
             50  H  4  X     -0.01682     0.05392
             51  H  4  Y     -0.01751     0.06389
             52  H  4  Z     -0.03121     0.07872
             53  C  5  S      2.00854     1.81500
             54  C  5  S      0.64845     0.41529
             55  C  5  S      0.18069     0.17111
             56  C  5  X      0.67175     0.57589
             57  C  5  Y      0.68444     0.58045
             58  C  5  Z      0.67240     0.57459
             59  C  5  X      0.44975     0.24557
             60  C  5  Y      0.24413     0.29500
             61  C  5  Z      0.24508     0.28415
             62  C  5 XX      0.01508     0.11630
             63  C  5 YY      0.01971     0.11367
             64  C  5 ZZ      0.01434     0.11114
             65  C  5 XY      0.02105     0.02647
             66  C  5 XZ      0.01302     0.03667
             67  C  5 YZ      0.00000     0.02568
             68  C  5  S     -0.16283     0.04856
             69  C  5  X      0.02062     0.04581
             70  C  5  Y     -0.02662     0.03343
             71  C  5  Z     -0.02716     0.03317
             72  C  5 XX      0.00816     0.11489
             73  C  5 YY     -0.01111     0.07197
             74  C  5 ZZ      0.01212     0.09000
             75  C  5 XY      0.03634     0.11011
             76  C  5 XZ      0.01184     0.12036
             77  C  5 YZ      0.00000     0.08355
             78  H  6  S      0.78836     0.54127
             79  H  6  S      0.37993     0.14768
             80  H  6  X      0.00478     0.01417
             81  H  6  Y      0.01777     0.03218
             82  H  6  Z      0.00555     0.01463
             83  H  6  S     -0.00661     0.02084
             84  H  6  X     -0.02366     0.04845
             85  H  6  Y     -0.02338     0.08064
             86  H  6  Z     -0.02519     0.05504
             87  H  7  S      0.78807     0.53630
             88  H  7  S      0.45402     0.14587
             89  H  7  X      0.00462     0.01328
             90  H  7  Y      0.00796     0.01759
             91  H  7  Z      0.01588     0.02899
             92  H  7  S     -0.01909     0.02234
             93  H  7  X     -0.01522     0.05216
             94  H  7  Y     -0.01881     0.06321
             95  H  7  Z     -0.01610     0.07267
             96  C  8  S      2.00854     1.81500
             97  C  8  S      0.64845     0.41529
             98  C  8  S      0.18069     0.17111
             99  C  8  X      0.67175     0.57589
            100  C  8  Y      0.68444     0.58045
            101  C  8  Z      0.67240     0.57459
            102  C  8  X      0.44975     0.24557
            103  C  8  Y      0.24413     0.29500
            104  C  8  Z      0.24509     0.28415
            105  C  8 XX      0.01508     0.11630
            106  C  8 YY      0.01971     0.11367
            107  C  8 ZZ      0.01434     0.11113
            108  C  8 XY      0.02106     0.02647
            109  C  8 XZ      0.01302     0.03667
            110  C  8 YZ      0.00000     0.02568
            111  C  8  S     -0.16283     0.04856
            112  C  8  X      0.02062     0.04581
            113  C  8  Y     -0.02661     0.03343
            114  C  8  Z     -0.02716     0.03317
            115  C  8 XX      0.00817     0.11489
            116  C  8 YY     -0.01111     0.07197
            117  C  8 ZZ      0.01213     0.09000
            118  C  8 XY      0.03633     0.11011
            119  C  8 XZ      0.01184     0.12036
            120  C  8 YZ      0.00000     0.08355
            121  H  9  S      0.78836     0.54126
            122  H  9  S      0.37993     0.14768
            123  H  9  X      0.00478     0.01417
            124  H  9  Y      0.01777     0.03218
            125  H  9  Z      0.00555     0.01463
            126  H  9  S     -0.00661     0.02084
            127  H  9  X     -0.02366     0.04845
            128  H  9  Y     -0.02338     0.08064
            129  H  9  Z     -0.02519     0.05504
            130  H 10  S      0.78807     0.53630
            131  H 10  S      0.45402     0.14587
            132  H 10  X      0.00462     0.01328
            133  H 10  Y      0.00796     0.01759
            134  H 10  Z      0.01588     0.02899
            135  H 10  S     -0.01909     0.02234
            136  H 10  X     -0.01522     0.05216
            137  H 10  Y     -0.01881     0.06321
            138  H 10  Z     -0.01610     0.07267
            139  C 11  S      2.00790     1.81596
            140  C 11  S      0.65410     0.42144
            141  C 11  S      0.06905     0.18269
            142  C 11  X      0.67921     0.58122
            143  C 11  Y      0.67951     0.58015
            144  C 11  Z      0.68081     0.58024
            145  C 11  X      0.26591     0.28218
            146  C 11  Y      0.20866     0.31123
            147  C 11  Z      0.19410     0.31057
            148  C 11 XX      0.01033     0.11345
            149  C 11 YY      0.01767     0.11828
            150  C 11 ZZ      0.00937     0.10858
            151  C 11 XY      0.01929     0.01729
            152  C 11 XZ      0.00984     0.03807
            153  C 11 YZ      0.00000     0.01984
            154  C 11  S      0.18326     0.05008
            155  C 11  X      0.02539     0.03607
            156  C 11  Y      0.00372     0.02888
            157  C 11  Z     -0.00274     0.02975
            158  C 11 XX     -0.01331     0.07676
            159  C 11 YY     -0.02386     0.07332
            160  C 11 ZZ     -0.00346     0.05411
            161  C 11 XY     -0.00250     0.04916
            162  C 11 XZ     -0.01029     0.10300
            163  C 11 YZ      0.00000     0.04647
            164  H 12  S      0.77631     0.53846
            165  H 12  S      0.36791     0.15847
            166  H 12  X      0.01383     0.02619
            167  H 12  Y      0.00507     0.01336
            168  H 12  Z      0.01086     0.02180
            169  H 12  S      0.01937     0.02030
            170  H 12  X     -0.01954     0.06597
            171  H 12  Y     -0.02067     0.05953
            172  H 12  Z     -0.01258     0.06973
            173  H 13  S      0.77580     0.54203
            174  H 13  S      0.31603     0.15598
            175  H 13  X      0.00526     0.01398
            176  H 13  Y      0.01863     0.03317
            177  H 13  Z      0.00587     0.01464
            178  H 13  S      0.01095     0.02102
            179  H 13  X     -0.00916     0.05515
            180  H 13  Y     -0.03251     0.08349
            181  H 13  Z     -0.02342     0.06064
            182  H 14  S      0.77569     0.53718
            183  H 14  S      0.31225     0.15543
            184  H 14  X      0.00591     0.01498
            185  H 14  Y      0.00799     0.01733
            186  H 14  Z      0.01591     0.02891
            187  H 14  S      0.00909     0.02080
            188  H 14  X     -0.01682     0.05393
            189  H 14  Y     -0.01751     0.06389
            190  H 14  Z     -0.03121     0.07872

          ----- MULLIKEN ATOMIC OVERLAP POPULATIONS -----
          (OFF-DIAGONAL ELEMENTS NEED TO BE MULTIPLIED BY 2)

             1           2           3           4           5

    1    4.2144269
    2    0.3349772   1.1748173
    3    0.3635403  -0.1891581   1.1661717
    4    0.3684129  -0.1906240  -0.1791653   1.1667858
    5    0.5176631   0.1283684  -0.1182637  -0.0696876   4.7856983
    6   -0.1027164  -0.0512505   0.0842430  -0.0822829   0.1286963
    7    0.0044275  -0.0562134  -0.0771992   0.0861013   0.2390821
    8   -0.0767935  -0.0146690   0.0098597  -0.0402376   0.3923123
    9    0.0337893   0.0002391  -0.0107313   0.0182387   0.1001770
   10   -0.0255477   0.0057978   0.0053125  -0.0273779  -0.2323798
   11    0.0115697  -0.0029501   0.0109252   0.0102524  -0.0767932
   12   -0.0029501  -0.0008914   0.0002738   0.0018301  -0.0146694
   13    0.0109250   0.0002738  -0.0009769   0.0026239   0.0098598
   14    0.0102525   0.0018301   0.0026239  -0.0035704  -0.0402373

             6           7           8           9          10

    6    1.3001053
    7   -0.2066108   1.4100196
    8    0.1001757  -0.2323805   4.7856997
    9   -0.1505262   0.0561812   0.1286958   1.3001065
   10    0.0561814   0.0197530   0.2390821  -0.2066105   1.4100164
   11    0.0337895  -0.0255474   0.5176630  -0.1027172   0.0044274
   12    0.0002390   0.0057979   0.1283693  -0.0512501  -0.0562139
   13   -0.0107312   0.0053122  -0.1182619   0.0842425  -0.0771993
   14    0.0182387  -0.0273778  -0.0696898  -0.0822827   0.0861016

            11          12          13          14

   11    4.2144258
   12    0.3349768   1.1748173
   13    0.3635403  -0.1891578   1.1661708
   14    0.3684132  -0.1906244  -0.1791651   1.1667873

          TOTAL MULLIKEN AND LOWDIN ATOMIC POPULATIONS
       ATOM         MULL.POP.    CHARGE          LOW.POP.     CHARGE
    1 C             5.661977    0.338023         6.028788   -0.028788
    2 H             1.140547   -0.140547         0.973797    0.026203
    3 H             1.067456   -0.067456         0.980107    0.019893
    4 H             1.061299   -0.061299         0.971162    0.028838
    5 C             5.749826    0.250174         6.138830   -0.138830
    6 H             1.117551   -0.117551         0.954902    0.045098
    7 H             1.201346   -0.201346         0.952415    0.047585
    8 C             5.749825    0.250175         6.138831   -0.138831
    9 H             1.117552   -0.117552         0.954901    0.045099
   10 H             1.201343   -0.201343         0.952413    0.047587
   11 C             5.661975    0.338025         6.028790   -0.028790
   12 H             1.140547   -0.140547         0.973797    0.026203
   13 H             1.067456   -0.067456         0.980106    0.019894
   14 H             1.061300   -0.061300         0.971161    0.028839

          MULLIKEN SPHERICAL HARMONIC POPULATIONS
       ATOM           S       P       D      F      G      H      I    TOTAL
    1 C             2.91    2.73    0.01   0.00   0.00   0.00   0.00    5.66
    2 H             1.16   -0.02    0.00   0.00   0.00   0.00   0.00    1.14
    3 H             1.10   -0.04    0.00   0.00   0.00   0.00   0.00    1.07
    4 H             1.10   -0.04    0.00   0.00   0.00   0.00   0.00    1.06
    5 C             2.67    2.93    0.14   0.00   0.00   0.00   0.00    5.75
    6 H             1.16   -0.04    0.00   0.00   0.00   0.00   0.00    1.12
    7 H             1.22   -0.02    0.00   0.00   0.00   0.00   0.00    1.20
    8 C             2.67    2.93    0.14   0.00   0.00   0.00   0.00    5.75
    9 H             1.16   -0.04    0.00   0.00   0.00   0.00   0.00    1.12
   10 H             1.22   -0.02    0.00   0.00   0.00   0.00   0.00    1.20
   11 C             2.91    2.73    0.01   0.00   0.00   0.00   0.00    5.66
   12 H             1.16   -0.02    0.00   0.00   0.00   0.00   0.00    1.14
   13 H             1.10   -0.04    0.00   0.00   0.00   0.00   0.00    1.07
   14 H             1.10   -0.04    0.00   0.00   0.00   0.00   0.00    1.06

          -------------------------------
          BOND ORDER AND VALENCE ANALYSIS     BOND ORDER THRESHOLD=0.050
          -------------------------------

                   BOND                       BOND                       BOND
  ATOM PAIR DIST  ORDER      ATOM PAIR DIST  ORDER      ATOM PAIR DIST  ORDER
    1   2  1.086  0.925        1   3  1.087  0.946        1   4  1.086  0.924
    1   5  1.529  1.238        1   8  2.571 -0.067        1  10  2.548  0.050
    1  11  3.680  0.052        2   3  1.755 -0.079        2   4  1.755 -0.080
    2   5  2.174  0.070        3   4  1.754 -0.084        5   6  1.086  0.821
    5   7  1.087  0.884        5   8  1.546  1.228        5   9  2.172  0.052
    5  10  2.168 -0.124        5  11  2.571 -0.067        6   7  1.734 -0.092
    6   8  2.172  0.052        6   9  2.289 -0.056        7   8  2.168 -0.124
    7  11  2.548  0.050        8   9  1.086  0.821        8  10  1.087  0.884
    8  11  1.529  1.238        8  12  2.174  0.070        9  10  1.734 -0.092
   11  12  1.086  0.925       11  13  1.087  0.946       11  14  1.086  0.924
   12  13  1.755 -0.079       12  14  1.755 -0.080       13  14  1.754 -0.084

                       TOTAL       BONDED        FREE
      ATOM            VALENCE     VALENCE     VALENCE
    1 C                 4.091       4.091      -0.000
    2 H                 0.793       0.793      -0.000
    3 H                 0.747       0.747       0.000
    4 H                 0.744       0.744       0.000
    5 C                 4.057       4.057       0.000
    6 H                 0.691       0.691      -0.000
    7 H                 0.722       0.722       0.000
    8 C                 4.057       4.057       0.000
    9 H                 0.691       0.691       0.000
   10 H                 0.722       0.722      -0.000
   11 C                 4.091       4.091       0.000
   12 H                 0.793       0.793       0.000
   13 H                 0.747       0.747      -0.000
   14 H                 0.744       0.744      -0.000

          ---------------------
          ELECTROSTATIC MOMENTS
          ---------------------

 POINT   1           X           Y           Z (BOHR)    CHARGE
                 0.000000    0.000000   -0.000000       -0.00 (A.U.)
         DX          DY          DZ         /D/  (DEBYE)
    -0.000001   -0.074747   -0.000002    0.074747
 ...... END OF PROPERTY EVALUATION ......
 CPU     0: STEP CPU TIME=     0.04 TOTAL CPU TIME=       32.5 (    0.5 MIN)
 TOTAL WALL CLOCK TIME=       32.8 SECONDS, CPU UTILIZATION IS  99.30%



 ---------------------------     ------------------------------
 DISTRIBUTED DATA MP2 ENERGY     PROGRAM WRITTEN BY G. FLETCHER
 ---------------------------     ------------------------------

 DDI: Creating Array [0] - 36100 x 91 = 3285100 words.
    THIS CALCULATION IS RUNNING WITH MWORDS=    5, MEMDDI=     100, AND P=    8
 MEMORY USAGE PER CPU IS 8*(MWORDS + MEMDDI/P)/1024 =    0.1 GBYTES.

 MINIMAL REQUIREMENT FOR THIS RUN IS MWORDS=    1, MEMDDI=       3.
 FOR P=    8, THE MEMORY USAGE PER CPU(CORE) WOULD BE    0.0 GBYTES.


      DIRECT 4-INDEX TRANSFORMATION 
      SCHWARZ INEQUALITY TEST SKIPPED     319084 INTEGRAL BLOCKS

 RESULTS OF MOLLER-PLESSET 2ND ORDER CORRECTION ARE
                     E(SCF)=      -157.3091778010
                       E(2)=        -0.6099956170
                     E(MP2)=      -157.9191734180
 SPIN-COMPONENT-SCALED MP2 RESULTS ARE
                      E(2S)=        -0.4748814492
                      E(2T)=        -0.1351141677
                     E(2ST)=        -0.6148957950 = 6/5 * E(2S) + 1/3 * E(2T)
                    SCS-MP2=      -157.9240735960
 ..... DONE WITH MP2 ENERGY .....
 CPU     0: STEP CPU TIME=     9.35 TOTAL CPU TIME=       41.9 (    0.7 MIN)
 TOTAL WALL CLOCK TIME=       42.2 SECONDS, CPU UTILIZATION IS  99.29%
               580000  WORDS OF DYNAMIC MEMORY USED
 EXECUTION OF GAMESS TERMINATED NORMALLY Fri Feb  5 10:02:07 2016
 DDI: 3729224 bytes (3.6 MB / 0 MWords) used by master data server.

 ----------------------------------------
 CPU timing information for all processes
 ========================================
 0: 41.784 + 0.126 = 41.911
 1: 41.672 + 0.77 = 41.750
 2: 41.653 + 0.97 = 41.751
 3: 41.605 + 0.82 = 41.688
 4: 41.627 + 0.104 = 41.732
 5: 41.501 + 0.80 = 41.582
 6: 41.652 + 0.84 = 41.737
 7: 41.293 + 0.54 = 41.348
 ----------------------------------------
 ddikick.x: exited gracefully.
unset echo
----- accounting info -----
Files used on the master node wr30 were:
-rw-r--r-- 1 kkirsc3m fb03-hpc  562667 Feb  5 10:01 /tmp/4610.wr0.wr.inf.h-brs.de/05.dat
-rw-r--r-- 1 kkirsc3m fb03-hpc    1284 Feb  5 10:01 /tmp/4610.wr0.wr.inf.h-brs.de/05.F05
-rw-r--r-- 1 kkirsc3m fb03-hpc 4155440 Feb  5 10:02 /tmp/4610.wr0.wr.inf.h-brs.de/05.F10
ls: No match.
ls: No match.
ls: No match.
Fri Feb  5 10:02:10 CET 2016
0.289u 0.069s 0:45.62 0.7%	0+0k 16+192io 0pf+0w
