----- GAMESS execution script 'rungms' -----
This job is running on host wr28
under operating system Linux at Fri Feb 5 10:01:45 CET 2016
PBS has assigned the following compute nodes to this run:
wr28
Available scratch disk space (Kbyte units) at beginning of the job is
Filesystem     1K-blocks    Used Available Use% Mounted on
/dev/sda2      379797844 8187584 352310984   3% /
GAMESS temporary binary files will be written to /tmp/4611.wr0.wr.inf.h-brs.de
GAMESS supplementary output files will be written to /tmp/4611.wr0.wr.inf.h-brs.de
Copying input file 06.inp to your run's scratch directory...
cp 06.inp /tmp/4611.wr0.wr.inf.h-brs.de/06.F05
unset echo
/usr/local/hpc5/gamess-gnu/ddikick.x /usr/local/hpc5/gamess-gnu/gamess.00.x 06 -ddi 1 8 wr28:cpus=8:netext=.myri -scr /tmp/4611.wr0.wr.inf.h-brs.de

 Distributed Data Interface kickoff program.
 Initiating 8 compute processes on 1 nodes to run the following command:
 /usr/local/hpc5/gamess-gnu/gamess.00.x 06 

          ******************************************************
          *         GAMESS VERSION =  1 MAY 2013 (R1)          *
          *             FROM IOWA STATE UNIVERSITY             *
          * M.W.SCHMIDT, K.K.BALDRIDGE, J.A.BOATZ, S.T.ELBERT, *
          *   M.S.GORDON, J.H.JENSEN, S.KOSEKI, N.MATSUNAGA,   *
          *          K.A.NGUYEN, S.J.SU, T.L.WINDUS,           *
          *       TOGETHER WITH M.DUPUIS, J.A.MONTGOMERY       *
          *         J.COMPUT.CHEM.  14, 1347-1363(1993)        *
          **************** 64 BIT LINUX VERSION ****************

  SINCE 1993, STUDENTS AND POSTDOCS WORKING AT IOWA STATE UNIVERSITY
  AND ALSO IN THEIR VARIOUS JOBS AFTER LEAVING ISU HAVE MADE IMPORTANT
  CONTRIBUTIONS TO THE CODE:
     IVANA ADAMOVIC, CHRISTINE AIKENS, YURI ALEXEEV, POOJA ARORA,
     ANDREY ASADCHEV, ROB BELL, PRADIPTA BANDYOPADHYAY, JONATHAN BENTZ,
     BRETT BODE, GALINA CHABAN, WEI CHEN, CHEOL HO CHOI, PAUL DAY,
     ALBERT DEFUSCO, TIM DUDLEY, DMITRI FEDOROV, GRAHAM FLETCHER,
     MARK FREITAG, KURT GLAESEMANN, DAN KEMP, GRANT MERRILL,
     NORIYUKI MINEZAWA, JONATHAN MULLIN, TAKESHI NAGATA,
     SEAN NEDD, HEATHER NETZLOFF, BOSILJKA NJEGIC, RYAN OLSON, MIKE PAK,
     JIM SHOEMAKER, LYUDMILA SLIPCHENKO, SAROM SOK, JIE SONG,
     TETSUYA TAKETSUGU, SIMON WEBB, SOOHAENG YOO, FEDERICO ZAHARIEV

  ADDITIONAL CODE HAS BEEN PROVIDED BY COLLABORATORS IN OTHER GROUPS:
     IOWA STATE UNIVERSITY:
          JOE IVANIC, LAIMUTIS BYTAUTAS, KLAUS RUEDENBERG
     UNIVERSITY OF TOKYO: KIMIHIKO HIRAO, TAKAHITO NAKAJIMA,
          TAKAO TSUNEDA, MUNEAKI KAMIYA, SUSUMU YANAGISAWA,
          KIYOSHI YAGI, MAHITO CHIBA, SEIKEN TOKURA, NAOAKI KAWAKAMI
     UNIVERSITY OF AARHUS: FRANK JENSEN
     UNIVERSITY OF IOWA: VISVALDAS KAIRYS, HUI LI
     NATIONAL INST. OF STANDARDS AND TECHNOLOGY: WALT STEVENS, DAVID GARMER
     UNIVERSITY OF PISA: BENEDETTA MENNUCCI, JACOPO TOMASI
     UNIVERSITY OF MEMPHIS: HENRY KURTZ, PRAKASHAN KORAMBATH
     UNIVERSITY OF ALBERTA: TOBY ZENG, MARIUSZ KLOBUKOWSKI
     UNIVERSITY OF NEW ENGLAND: MARK SPACKMAN
     MIE UNIVERSITY: HIROAKI UMEDA
     MICHIGAN STATE UNIVERSITY:
          KAROL KOWALSKI, MARTA WLOCH, JEFFREY GOUR, JESSE LUTZ,
          WEI LI, PIOTR PIECUCH
     UNIVERSITY OF SILESIA: MONIKA MUSIAL, STANISLAW KUCHARSKI
     FACULTES UNIVERSITAIRES NOTRE-DAME DE LA PAIX:
          OLIVIER QUINET, BENOIT CHAMPAGNE
     UNIVERSITY OF CALIFORNIA - SANTA BARBARA: BERNARD KIRTMAN
     INSTITUTE FOR MOLECULAR SCIENCE:
          KAZUYA ISHIMURA, MICHIO KATOUDA, AND SHIGERU NAGASE
     UNIVERSITY OF NOTRE DAME: DAN CHIPMAN
     KYUSHU UNIVERSITY:
          HARUYUKI NAKANO,
          FENG LONG GU, JACEK KORCHOWIEC, MARCIN MAKOWSKI, AND YURIKO AOKI,
          HIROTOSHI MORI AND EISAKU MIYOSHI
     PENNSYLVANIA STATE UNIVERSITY:
          TZVETELIN IORDANOV, CHET SWALINA, JONATHAN SKONE,
          SHARON HAMMES-SCHIFFER
     WASEDA UNIVERSITY:
          MASATO KOBAYASHI, TOMOKO AKAMA, TSUGUKI TOUMA,
          TAKESHI YOSHIKAWA, YASUHIRO IKABATA, HIROMI NAKAI
     NANJING UNIVERSITY: SHUHUA LI
     UNIVERSITY OF NEBRASKA:
          PEIFENG SU, DEJUN SI, NANDUN THELLAMUREGE, YALI WANG, HUI LI
     UNIVERSITY OF ZURICH:
          ROBERTO PEVERATI, KIM BALDRIDGE
     N. COPERNICUS UNIVERSITY AND JACKSON STATE UNIVERSITY:
          MARIA BARYSZ


 PARALLEL VERSION RUNNING ON     8 PROCESSORS IN     1 NODES.

 EXECUTION OF GAMESS BEGUN Fri Feb  5 10:01:45 2016

            ECHO OF THE FIRST FEW INPUT CARDS -
 INPUT CARD> $CONTRL  ICHARG=0 MPLEVL=2 ISPHER=1                                            
 INPUT CARD>          RUNTYP=ENERGY SCFTYP=RHF EXETYP=RUN                                   
 INPUT CARD>          MULT=1 UNITS=ANGS MAXIT=200                                           
 INPUT CARD>          COORD=PRINAXIS                       $END                             
 INPUT CARD> $SCF     DIRSCF=.T. CONV=1.0E-08  FDIFF=.F.   $END                             
 INPUT CARD> $SYSTEM  TIMLIM=50000 MWORDS=5 MEMDDI=100     $END                             
 INPUT CARD> $BASIS   GBASIS=ACCD                          $END                             
 INPUT CARD> $GUESS   GUESS=HUCKEL                         $END                             
 INPUT CARD> $DATA                                                                          
 INPUT CARD>Full optimization                                                               
 INPUT CARD> C1                                                                             
 INPUT CARD> C           6.0  -1.9252610008   0.1330907754   0.1742718994                   
 INPUT CARD> H           1.0  -2.7289225576  -0.5960889850   0.1381393671                   
 INPUT CARD> H           1.0  -1.8964889099   0.5471596864   1.1778660023                   
 INPUT CARD> H           1.0  -2.1809922464   0.9399882961  -0.5075259751                   
 INPUT CARD> C           6.0  -0.5828209754  -0.5010024371  -0.1894371104                   
 INPUT CARD> H           1.0  -0.6502856405  -0.9876147860  -1.1591502656                   
 INPUT CARD> H           1.0  -0.3735874732  -1.2913206612   0.5285198860                   
 INPUT CARD> C           6.0   0.5828186322   0.5011940231  -0.1889345074                   
 INPUT CARD> H           1.0   0.6502700398   0.9887983817  -1.1581499679                   
 INPUT CARD> H           1.0   0.3735930731   1.2907780694   0.5298325122                   
 INPUT CARD> C           6.0   1.9252633464  -0.1332673126   0.1741146063                   
 INPUT CARD> H           1.0   2.7289236723   0.5959497605   0.1387167263                   
 INPUT CARD> H           1.0   1.8965010716  -0.5483589985   1.1772863640                   
 INPUT CARD> H           1.0   2.1809889423  -0.9394699460  -0.5085070445                   
 INPUT CARD> $END                                                                           
    5000000 WORDS OF MEMORY AVAILABLE

     BASIS OPTIONS
     -------------
     GBASIS=ACCD         IGAUSS=       0      POLAR=NONE    
     NDFUNC=       0     NFFUNC=       0     DIFFSP=       F
     NPFUNC=       0      DIFFS=       F     BASNAM=        


     RUN TITLE
     ---------
 Full optimization                                                               

 THE POINT GROUP OF THE MOLECULE IS C1      
 THE ORDER OF THE PRINCIPAL AXIS IS     0

 THE MOMENTS OF INERTIA ARE (AMU-ANGSTROM**2)
 IXX=    23.092   IYY=   138.305   IZZ=   144.974

 ATOM      ATOMIC                      COORDINATES (BOHR)
           CHARGE         X                   Y                   Z
 C           6.0     3.6378281499        0.2572406120       -0.3291776945
 H           1.0     5.1586351630       -1.1184178443       -0.2615891816
 H           1.0     3.5822684620        1.0405974738       -2.2252977569
 H           1.0     4.1187495239        1.7821383761        0.9600113307
 C           6.0     1.1028179540       -0.9452524362        0.3575090101
 H           1.0     1.2317060468       -1.8655518751        2.1895340828
 H           1.0     0.7097168513       -2.4386506851       -0.9999944128
 C           6.0    -1.1028175565        0.9452509250        0.3575097607
 H           1.0    -1.2317012802        1.8655619851        2.1895289611
 H           1.0    -0.7097161403        2.4386422501       -1.0000018811
 C           6.0    -3.6378288709       -0.2572394742       -0.3291774236
 H           1.0    -5.1586343230        1.1184207655       -0.2615930391
 H           1.0    -3.5822663366       -1.0406009029       -2.2252954518
 H           1.0    -4.1187541145       -1.7821350948        0.9600129207

          INTERNUCLEAR DISTANCES (ANGS.)
          ------------------------------

                1 C          2 H          3 H          4 H          5 C     

   1 C       0.0000000    1.0857627 *  1.0860396 *  1.0868903 *  1.5285626 *
   2 H       1.0857627 *  0.0000000    1.7552763 *  1.7540367 *  2.1730393 *
   3 H       1.0860396 *  1.7552763 *  0.0000000    1.7537966 *  2.1665376 *
   4 H       1.0868903 *  1.7540367 *  1.7537966 *  0.0000000    2.1752669 *
   5 C       1.5285626 *  2.1730393 *  2.1665376 *  2.1752669 *  0.0000000  
   6 H       2.1586009 *  2.4813271 *  3.0610783    2.5462385 *  1.0870541 *
   7 H       2.1359144 *  2.4866337 *  2.4740431 *  3.0526780    1.0880459 *
   8 C       2.5608363 *  3.5040886    2.8314700 *  2.8165034 *  1.5372422 *
   9 H       3.0233994    3.9510982    3.4839628    2.9054673 *  2.1629666 *
  10 H       2.5983443 *  3.6522998    2.4751137 *  2.7794014 *  2.1546587 *
  11 C       3.8597259    4.6772796    4.0095247    4.2985866    2.5608370 *
  12 H       4.6772789    5.5865054    4.7409549    4.9641985    3.5040893  
  13 H       4.0095233    4.7409544    3.9480292    4.6561488    2.8314684 *
  14 H       4.2985884    4.9642011    4.6561516    4.7496573    2.8165058 *

                6 H          7 H          8 C          9 H         10 H     

   1 C       2.1586009 *  2.1359144 *  2.5608363 *  3.0233994    2.5983443 *
   2 H       2.4813271 *  2.4866337 *  3.5040886    3.9510982    3.6522998  
   3 H       3.0610783    2.4740431 *  2.8314700 *  3.4839628    2.4751137 *
   4 H       2.5462385 *  3.0526780    2.8165034 *  2.9054673 *  2.7794014 *
   5 C       1.0870541 *  1.0880459 *  1.5372422 *  2.1629666 *  2.1546587 *
   6 H       0.0000000    1.7369599 *  2.1629647 *  2.3659364 *  3.0153050  
   7 H       1.7369599 *  0.0000000    2.1546606 *  3.0153080    2.6880317 *
   8 C       2.1629647 *  2.1546606 *  0.0000000    1.0870540 *  1.0880461 *
   9 H       2.3659364 *  3.0153080    1.0870540 *  0.0000000    1.7369590 *
  10 H       3.0153050    2.6880317 *  1.0880461 *  1.7369590 *  0.0000000  
  11 C       3.0234016    2.5983467 *  1.5285626 *  2.1586033 *  2.1359122 *
  12 H       3.9511000    3.6523022    2.1730395 *  2.4813291 *  2.4866323 *
  13 H       3.4839639    2.4751145 *  2.1665370 *  3.0610795    2.4740393 *
  14 H       2.9054725 *  2.7794036 *  2.1752673 *  2.5462433 *  3.0526767  

               11 C         12 H         13 H         14 H     

   1 C       3.8597259    4.6772789    4.0095233    4.2985884  
   2 H       4.6772796    5.5865054    4.7409544    4.9642011  
   3 H       4.0095247    4.7409549    3.9480292    4.6561516  
   4 H       4.2985866    4.9641985    4.6561488    4.7496573  
   5 C       2.5608370 *  3.5040893    2.8314684 *  2.8165058 *
   6 H       3.0234016    3.9511000    3.4839639    2.9054725 *
   7 H       2.5983467 *  3.6523022    2.4751145 *  2.7794036 *
   8 C       1.5285626 *  2.1730395 *  2.1665370 *  2.1752673 *
   9 H       2.1586033 *  2.4813291 *  3.0610795    2.5462433 *
  10 H       2.1359122 *  2.4866323 *  2.4740393 *  3.0526767  
  11 C       0.0000000    1.0857626 *  1.0860396 *  1.0868903 *
  12 H       1.0857626 *  0.0000000    1.7552768 *  1.7540367 *
  13 H       1.0860396 *  1.7552768 *  0.0000000    1.7537960 *
  14 H       1.0868903 *  1.7540367 *  1.7537960 *  0.0000000  

  * ... LESS THAN  3.000


     ATOMIC BASIS SET
     ----------------
 THE CONTRACTED PRIMITIVE FUNCTIONS HAVE BEEN UNNORMALIZED
 THE CONTRACTED BASIS FUNCTIONS ARE NOW NORMALIZED TO UNITY

  SHELL TYPE  PRIMITIVE        EXPONENT          CONTRACTION COEFFICIENT(S)

 C         

      1   S       1          6665.0000000    0.000691583963
      1   S       2          1000.0000000    0.005325796153
      1   S       3           228.0000000    0.027060721042
      1   S       4            64.7100000    0.101656846141
      1   S       5            21.0600000    0.274574823617
      1   S       6             7.4950000    0.448294318924
      1   S       7             2.7970000    0.284902610715
      1   S       8             0.5215000    0.015194859206

      2   S       9          6665.0000000   -0.000293269653
      2   S      10          1000.0000000   -0.002318035474
      2   S      11           228.0000000   -0.011499786039
      2   S      12            64.7100000   -0.046826727010
      2   S      13            21.0600000   -0.128466168750
      2   S      14             7.4950000   -0.301266272463
      2   S      15             2.7970000   -0.255630702330
      2   S      16             0.5215000    1.093793361012

      3   S      17             0.1596000    1.000000000000

      4   P      18             9.4390000    0.056979251590
      4   P      19             2.0020000    0.313207211501
      4   P      20             0.5456000    0.760376741738

      5   P      21             0.1517000    1.000000000000

      6   D      22             0.5500000    1.000000000000

      7   S      23             0.0469000    1.000000000000

      8   P      24             0.0404100    1.000000000000

      9   D      25             0.1510000    1.000000000000

 H         

     10   S      26            13.0100000    0.033498726390
     10   S      27             1.9620000    0.234800801174
     10   S      28             0.4446000    0.813682957883

     11   S      29             0.1220000    1.000000000000

     12   P      30             0.7270000    1.000000000000

     13   S      31             0.0297400    1.000000000000

     14   P      32             0.1410000    1.000000000000

 H         

     15   S      33            13.0100000    0.033498726390
     15   S      34             1.9620000    0.234800801174
     15   S      35             0.4446000    0.813682957883

     16   S      36             0.1220000    1.000000000000

     17   P      37             0.7270000    1.000000000000

     18   S      38             0.0297400    1.000000000000

     19   P      39             0.1410000    1.000000000000

 H         

     20   S      40            13.0100000    0.033498726390
     20   S      41             1.9620000    0.234800801174
     20   S      42             0.4446000    0.813682957883

     21   S      43             0.1220000    1.000000000000

     22   P      44             0.7270000    1.000000000000

     23   S      45             0.0297400    1.000000000000

     24   P      46             0.1410000    1.000000000000

 C         

     25   S      47          6665.0000000    0.000691583963
     25   S      48          1000.0000000    0.005325796153
     25   S      49           228.0000000    0.027060721042
     25   S      50            64.7100000    0.101656846141
     25   S      51            21.0600000    0.274574823617
     25   S      52             7.4950000    0.448294318924
     25   S      53             2.7970000    0.284902610715
     25   S      54             0.5215000    0.015194859206

     26   S      55          6665.0000000   -0.000293269653
     26   S      56          1000.0000000   -0.002318035474
     26   S      57           228.0000000   -0.011499786039
     26   S      58            64.7100000   -0.046826727010
     26   S      59            21.0600000   -0.128466168750
     26   S      60             7.4950000   -0.301266272463
     26   S      61             2.7970000   -0.255630702330
     26   S      62             0.5215000    1.093793361012

     27   S      63             0.1596000    1.000000000000

     28   P      64             9.4390000    0.056979251590
     28   P      65             2.0020000    0.313207211501
     28   P      66             0.5456000    0.760376741738

     29   P      67             0.1517000    1.000000000000

     30   D      68             0.5500000    1.000000000000

     31   S      69             0.0469000    1.000000000000

     32   P      70             0.0404100    1.000000000000

     33   D      71             0.1510000    1.000000000000

 H         

     34   S      72            13.0100000    0.033498726390
     34   S      73             1.9620000    0.234800801174
     34   S      74             0.4446000    0.813682957883

     35   S      75             0.1220000    1.000000000000

     36   P      76             0.7270000    1.000000000000

     37   S      77             0.0297400    1.000000000000

     38   P      78             0.1410000    1.000000000000

 H         

     39   S      79            13.0100000    0.033498726390
     39   S      80             1.9620000    0.234800801174
     39   S      81             0.4446000    0.813682957883

     40   S      82             0.1220000    1.000000000000

     41   P      83             0.7270000    1.000000000000

     42   S      84             0.0297400    1.000000000000

     43   P      85             0.1410000    1.000000000000

 C         

     44   S      86          6665.0000000    0.000691583963
     44   S      87          1000.0000000    0.005325796153
     44   S      88           228.0000000    0.027060721042
     44   S      89            64.7100000    0.101656846141
     44   S      90            21.0600000    0.274574823617
     44   S      91             7.4950000    0.448294318924
     44   S      92             2.7970000    0.284902610715
     44   S      93             0.5215000    0.015194859206

     45   S      94          6665.0000000   -0.000293269653
     45   S      95          1000.0000000   -0.002318035474
     45   S      96           228.0000000   -0.011499786039
     45   S      97            64.7100000   -0.046826727010
     45   S      98            21.0600000   -0.128466168750
     45   S      99             7.4950000   -0.301266272463
     45   S     100             2.7970000   -0.255630702330
     45   S     101             0.5215000    1.093793361012

     46   S     102             0.1596000    1.000000000000

     47   P     103             9.4390000    0.056979251590
     47   P     104             2.0020000    0.313207211501
     47   P     105             0.5456000    0.760376741738

     48   P     106             0.1517000    1.000000000000

     49   D     107             0.5500000    1.000000000000

     50   S     108             0.0469000    1.000000000000

     51   P     109             0.0404100    1.000000000000

     52   D     110             0.1510000    1.000000000000

 H         

     53   S     111            13.0100000    0.033498726390
     53   S     112             1.9620000    0.234800801174
     53   S     113             0.4446000    0.813682957883

     54   S     114             0.1220000    1.000000000000

     55   P     115             0.7270000    1.000000000000

     56   S     116             0.0297400    1.000000000000

     57   P     117             0.1410000    1.000000000000

 H         

     58   S     118            13.0100000    0.033498726390
     58   S     119             1.9620000    0.234800801174
     58   S     120             0.4446000    0.813682957883

     59   S     121             0.1220000    1.000000000000

     60   P     122             0.7270000    1.000000000000

     61   S     123             0.0297400    1.000000000000

     62   P     124             0.1410000    1.000000000000

 C         

     63   S     125          6665.0000000    0.000691583963
     63   S     126          1000.0000000    0.005325796153
     63   S     127           228.0000000    0.027060721042
     63   S     128            64.7100000    0.101656846141
     63   S     129            21.0600000    0.274574823617
     63   S     130             7.4950000    0.448294318924
     63   S     131             2.7970000    0.284902610715
     63   S     132             0.5215000    0.015194859206

     64   S     133          6665.0000000   -0.000293269653
     64   S     134          1000.0000000   -0.002318035474
     64   S     135           228.0000000   -0.011499786039
     64   S     136            64.7100000   -0.046826727010
     64   S     137            21.0600000   -0.128466168750
     64   S     138             7.4950000   -0.301266272463
     64   S     139             2.7970000   -0.255630702330
     64   S     140             0.5215000    1.093793361012

     65   S     141             0.1596000    1.000000000000

     66   P     142             9.4390000    0.056979251590
     66   P     143             2.0020000    0.313207211501
     66   P     144             0.5456000    0.760376741738

     67   P     145             0.1517000    1.000000000000

     68   D     146             0.5500000    1.000000000000

     69   S     147             0.0469000    1.000000000000

     70   P     148             0.0404100    1.000000000000

     71   D     149             0.1510000    1.000000000000

 H         

     72   S     150            13.0100000    0.033498726390
     72   S     151             1.9620000    0.234800801174
     72   S     152             0.4446000    0.813682957883

     73   S     153             0.1220000    1.000000000000

     74   P     154             0.7270000    1.000000000000

     75   S     155             0.0297400    1.000000000000

     76   P     156             0.1410000    1.000000000000

 H         

     77   S     157            13.0100000    0.033498726390
     77   S     158             1.9620000    0.234800801174
     77   S     159             0.4446000    0.813682957883

     78   S     160             0.1220000    1.000000000000

     79   P     161             0.7270000    1.000000000000

     80   S     162             0.0297400    1.000000000000

     81   P     163             0.1410000    1.000000000000

 H         

     82   S     164            13.0100000    0.033498726390
     82   S     165             1.9620000    0.234800801174
     82   S     166             0.4446000    0.813682957883

     83   S     167             0.1220000    1.000000000000

     84   P     168             0.7270000    1.000000000000

     85   S     169             0.0297400    1.000000000000

     86   P     170             0.1410000    1.000000000000

 TOTAL NUMBER OF BASIS SET SHELLS             =   86
 NUMBER OF CARTESIAN GAUSSIAN BASIS FUNCTIONS =  190
 NOTE: THIS RUN WILL RESTRICT THE MO VARIATION SPACE TO SPHERICAL HARMONICS.
 THE NUMBER OF ORBITALS KEPT IN THE VARIATIONAL SPACE WILL BE PRINTED LATER.
 NUMBER OF ELECTRONS                          =   34
 CHARGE OF MOLECULE                           =    0
 SPIN MULTIPLICITY                            =    1
 NUMBER OF OCCUPIED ORBITALS (ALPHA)          =   17
 NUMBER OF OCCUPIED ORBITALS (BETA )          =   17
 TOTAL NUMBER OF ATOMS                        =   14
 THE NUCLEAR REPULSION ENERGY IS      130.8076482000

     $CONTRL OPTIONS
     ---------------
 SCFTYP=RHF          RUNTYP=ENERGY       EXETYP=RUN     
 MPLEVL=       2     CITYP =NONE         CCTYP =NONE         VBTYP =NONE    
 DFTTYP=NONE         TDDFT =NONE    
 MULT  =       1     ICHARG=       0     NZVAR =       0     COORD =PRINAXIS
 PP    =NONE         RELWFN=NONE         LOCAL =NONE         NUMGRD=       F
 ISPHER=       1     NOSYM =       0     MAXIT =     200     UNITS =ANGS    
 PLTORB=       F     MOLPLT=       F     AIMPAC=       F     FRIEND=        
 NPRINT=       7     IREST =       0     GEOM  =INPUT   
 NORMF =       0     NORMP =       0     ITOL  =      20     ICUT  =       9
 INTTYP=BEST         GRDTYP=BEST         QMTTOL= 1.0E-06

     $SYSTEM OPTIONS
     ---------------
  REPLICATED MEMORY=     5000000 WORDS (ON EVERY NODE).
 DISTRIBUTED MEMDDI=         100 MILLION WORDS IN AGGREGATE,
 MEMDDI DISTRIBUTED OVER   8 PROCESSORS IS    12500000 WORDS/PROCESSOR.
 TOTAL MEMORY REQUESTED ON EACH PROCESSOR=    17500000 WORDS.
 TIMLIM=       50000.00 MINUTES, OR      34.7 DAYS.
 PARALL= T  BALTYP=  DLB     KDIAG=    0  COREFL= F
 MXSEQ2=     300 MXSEQ3=     150

          ----------------
          PROPERTIES INPUT
          ----------------

     MOMENTS            FIELD           POTENTIAL          DENSITY
 IEMOM =       1   IEFLD =       0   IEPOT =       0   IEDEN =       0
 WHERE =COMASS     WHERE =NUCLEI     WHERE =NUCLEI     WHERE =NUCLEI  
 OUTPUT=BOTH       OUTPUT=BOTH       OUTPUT=BOTH       OUTPUT=BOTH    
 IEMINT=       0   IEFINT=       0                     IEDINT=       0
                                                       MORB  =       0
          EXTRAPOLATION IN EFFECT
          SOSCF IN EFFECT
 ORBITAL PRINTING OPTION: NPREO=     1   190     2     1

     -------------------------------
     INTEGRAL TRANSFORMATION OPTIONS
     -------------------------------
     NWORD  =            0
     CUTOFF = 1.0E-09     MPTRAN =       0
     DIRTRF =       T     AOINTS =DUP     

          ----------------------
          INTEGRAL INPUT OPTIONS
          ----------------------
 NOPK  =       1 NORDER=       0 SCHWRZ=       T

          -----------------------
          MP2 CONTROL INFORMATION
          -----------------------
          NACORE =        4  NBCORE =        4
          LMOMP2 =        F  AOINTS = DUP     
          METHOD =        2  NWORD  =               0
          MP2PRP =        F  OSPT   = NONE    
          CUTOFF = 1.00E-09  CPHFBS = BASISAO 
          CODE   = DDI     

          NUMBER OF CORE -A-  ORBITALS =     4
          NUMBER OF CORE -B-  ORBITALS =     4
          NUMBER OF OCC. -A-  ORBITALS =    17
          NUMBER OF OCC. -B-  ORBITALS =    17
          NUMBER OF MOLECULAR ORBITALS =   190
          NUMBER OF   BASIS  FUNCTIONS =   190


     ------------------------------------------
     THE POINT GROUP IS C1 , NAXIS= 0, ORDER= 1
     ------------------------------------------

 -- VARIATIONAL SPACE WILL BE RESTRICTED TO PURE SPHERICAL HARMONICS ONLY --
 AFTER EXCLUDING CONTAMINANT COMBINATIONS FROM THE CARTESIAN GAUSSIAN BASIS
 SET, THE NUMBER OF SPHERICAL HARMONICS KEPT IN THE VARIATION SPACE IS  182

     DIMENSIONS OF THE SYMMETRY SUBSPACES ARE
 A   =  182

 ..... DONE SETTING UP THE RUN .....
 CPU     0: STEP CPU TIME=     0.03 TOTAL CPU TIME=        0.0 (    0.0 MIN)
 TOTAL WALL CLOCK TIME=        0.1 SECONDS, CPU UTILIZATION IS  50.00%

          ********************
          1 ELECTRON INTEGRALS
          ********************
 ...... END OF ONE-ELECTRON INTEGRALS ......
 CPU     0: STEP CPU TIME=     0.00 TOTAL CPU TIME=        0.0 (    0.0 MIN)
 TOTAL WALL CLOCK TIME=        0.1 SECONDS, CPU UTILIZATION IS  42.86%

          -------------
          GUESS OPTIONS
          -------------
          GUESS =HUCKEL            NORB  =       0          NORDER=       0
          MIX   =       F          PRTMO =       F          PUNMO =       F
          TOLZ  = 1.0E-08          TOLE  = 1.0E-05
          SYMDEN=       F          PURIFY=       F

 INITIAL GUESS ORBITALS GENERATED BY HUCKEL   ROUTINE.
 HUCKEL GUESS REQUIRES    272744 WORDS.

 STATISTICS FOR GENERATION OF SYMMETRY ORBITAL -Q- MATRIX
 NUMBER OF CARTESIAN ATOMIC ORBITALS=        190
 NUMBER OF SPHERICAL CONTAMINANTS DROPPED=     8
 NUMBER OF LINEARLY DEPENDENT MOS DROPPED=     0
 TOTAL NUMBER OF MOS IN VARIATION SPACE=     182

 SYMMETRIES FOR INITIAL GUESS ORBITALS FOLLOW.   BOTH SET(S).
    17 ORBITALS ARE OCCUPIED (    4 CORE ORBITALS).
     5=A        6=A        7=A        8=A        9=A       10=A       11=A   
    12=A       13=A       14=A       15=A       16=A       17=A       18=A   
    19=A       20=A       21=A       22=A       23=A       24=A       25=A   
    26=A       27=A   
 ...... END OF INITIAL ORBITAL SELECTION ......
 CPU     0: STEP CPU TIME=     0.06 TOTAL CPU TIME=        0.1 (    0.0 MIN)
 TOTAL WALL CLOCK TIME=        0.2 SECONDS, CPU UTILIZATION IS  42.86%

                    ----------------------
                    AO INTEGRAL TECHNOLOGY
                    ----------------------
     S,P,L SHELL ROTATED AXIS INTEGRALS, REPROGRAMMED BY
        KAZUYA ISHIMURA (IMS) AND JOSE SIERRA (SYNSTAR).
     S,P,D,L SHELL ROTATED AXIS INTEGRALS PROGRAMMED BY
        KAZUYA ISHIMURA (INSTITUTE FOR MOLECULAR SCIENCE).
     S,P,D,F,G SHELL TO TOTAL QUARTET ANGULAR MOMENTUM SUM 5,
        ERIC PROGRAM BY GRAHAM FLETCHER (ELORET AND NASA ADVANCED
        SUPERCOMPUTING DIVISION, AMES RESEARCH CENTER).
     S,P,D,F,G,L SHELL GENERAL RYS QUADRATURE PROGRAMMED BY
        MICHEL DUPUIS (PACIFIC NORTHWEST NATIONAL LABORATORY).

          --------------------
          2 ELECTRON INTEGRALS
          --------------------

 DIRECT SCF METHOD SKIPS INTEGRAL STORAGE ON DISK.
 DIRECT TRANSFORMATION SKIPS AO INTEGRAL STORAGE ON DISK.
  ...... END OF TWO-ELECTRON INTEGRALS .....
 CPU     0: STEP CPU TIME=     0.03 TOTAL CPU TIME=        0.1 (    0.0 MIN)
 TOTAL WALL CLOCK TIME=        0.2 SECONDS, CPU UTILIZATION IS  50.00%

          --------------------------
                 RHF SCF CALCULATION
          --------------------------

     NUCLEAR ENERGY =       130.8076482000
     MAXIT =  200     NPUNCH=    2
     EXTRAP=T  DAMP=F  SHIFT=F  RSTRCT=F  DIIS=F  DEM=F  SOSCF=T
     DENSITY MATRIX CONV=  2.00E-08
     SOSCF WILL OPTIMIZE    2805 ORBITAL ROTATIONS, SOGTOL=   0.250
     MEMORY REQUIRED FOR RHF ITERS=    319458 WORDS.

 DIRECT SCF CALCULATION, SCHWRZ=T   FDIFF=F,  DIRTHR=  0.00E+00 NITDIR=10
 SCHWARZ INEQUALITY OVERHEAD:     18136 INTEGRALS, T=        0.00

                                                                                   NONZERO     BLOCKS
 ITER EX DEM     TOTAL ENERGY        E CHANGE  DENSITY CHANGE     ORB. GRAD      INTEGRALS    SKIPPED
   1  0  0     -156.9187947955  -156.9187947955   0.650541400   0.000000000      157536799     223937
          ---------------START SECOND ORDER SCF---------------
   2  1  0     -157.2859367704    -0.3671419748   0.084499991   0.019379630      157581472     232499
   3  2  0     -157.3082882432    -0.0223514728   0.020002000   0.008589100      157592108     232297
   4  3  0     -157.3121202700    -0.0038320268   0.006419892   0.001100437      157595173     232106
   5  4  0     -157.3122566538    -0.0001363838   0.001689772   0.000289934      157592624     232270
   6  5  0     -157.3122643874    -0.0000077336   0.000651834   0.000126750      157592021     232319
   7  6  0     -157.3122652368    -0.0000008495   0.000112122   0.000016520      157592207     232319
   8  7  0     -157.3122652722    -0.0000000354   0.000031766   0.000003756      157592465     232287
   9  8  0     -157.3122652741    -0.0000000019   0.000012868   0.000000886      157592449     232289
  10  9  0     -157.3122652742    -0.0000000001   0.000002890   0.000000209      157592449     232289
  11 10  0     -157.3122652742    -0.0000000000   0.000000627   0.000000055      157592449     232289
  12 11  0     -157.3122652742     0.0000000000   0.000000319   0.000000014      157592449     232289
  13 12  0     -157.3122652742     0.0000000000   0.000000000   0.000000003      157592449     232289

          -----------------
          DENSITY CONVERGED
          -----------------
     TIME TO FORM FOCK OPERATORS=      31.4 SECONDS (       2.4 SEC/ITER)
     FOCK TIME ON FIRST ITERATION=       2.4, LAST ITERATION=       2.6
     TIME TO SOLVE SCF EQUATIONS=       0.1 SECONDS (       0.0 SEC/ITER)

 FINAL RHF ENERGY IS     -157.3122652742 AFTER  13 ITERATIONS

          ------------
          EIGENVECTORS
          ------------

                      1          2          3          4          5
                  -11.2184   -11.2178   -11.2135   -11.2135    -1.0693
                     A          A          A          A          A   
    1  C  1  S    0.042024  -0.050186   0.707989   0.708838  -0.011454
    2  C  1  S   -0.000185  -0.000380   0.005302   0.005615   0.156206
    3  C  1  S    0.008618  -0.001526  -0.025270  -0.030293   0.023230
    4  C  1  X   -0.000084   0.000205   0.000067   0.000070  -0.047480
    5  C  1  Y   -0.000073   0.000083   0.000041   0.000050  -0.016311
    6  C  1  Z    0.000018  -0.000068  -0.000010  -0.000035   0.011045
    7  C  1  X   -0.010485   0.004893   0.005680   0.008368   0.004435
    8  C  1  Y   -0.004001   0.000161   0.002790   0.003989  -0.032059
    9  C  1  Z    0.002399  -0.000709  -0.001288  -0.002204   0.008708
   10  C  1 XX    0.000037  -0.000013  -0.000096  -0.000133   0.007344
   11  C  1 YY    0.000002   0.000028   0.000050   0.000038  -0.003281
   12  C  1 ZZ   -0.000039  -0.000014   0.000046   0.000094  -0.004063
   13  C  1 XY   -0.000052   0.000095  -0.000115  -0.000174   0.007732
   14  C  1 XZ    0.000017  -0.000004   0.000094   0.000086  -0.004201
   15  C  1 YZ    0.000011  -0.000022   0.000057   0.000042  -0.001891
   16  C  1  S    0.000306   0.005112  -0.006328  -0.011425   0.044600
   17  C  1  X   -0.000933  -0.000899   0.000858   0.002453  -0.023432
   18  C  1  Y   -0.000603  -0.000172   0.000394   0.000598  -0.007348
   19  C  1  Z    0.000172   0.000200  -0.000007  -0.000908   0.003433
   20  C  1 XX    0.002284  -0.001336  -0.000669  -0.001413  -0.017498
   21  C  1 YY   -0.001163   0.000765   0.000142   0.000508   0.014279
   22  C  1 ZZ   -0.001121   0.000572   0.000527   0.000905   0.003219
   23  C  1 XY    0.000960  -0.000701  -0.000996  -0.001776   0.013702
   24  C  1 XZ   -0.001444   0.000177   0.000835   0.000176   0.004377
   25  C  1 YZ    0.000033   0.000173   0.000480   0.000297  -0.009776
   26  H  2  S   -0.000097   0.000006   0.000309   0.000271   0.060377
   27  H  2  S    0.002352  -0.004095   0.003005   0.003425   0.015662
   28  H  2  X    0.000076  -0.000029   0.000104   0.000084  -0.007085
   29  H  2  Y   -0.000028   0.000055  -0.000196  -0.000178   0.006588
   30  H  2  Z    0.000025   0.000009   0.000012   0.000043  -0.000624
   31  H  2  S    0.000616   0.000502   0.000247  -0.000758   0.007101
   32  H  2  X   -0.000345   0.001116  -0.000959  -0.001349   0.005292
   33  H  2  Y    0.000213  -0.000491   0.000385   0.000610   0.013360
   34  H  2  Z    0.000249   0.000047   0.000058   0.000230  -0.006405
   35  H  3  S   -0.000014   0.000086   0.000282   0.000394   0.064951
   36  H  3  S    0.003260  -0.000928   0.005649   0.003027  -0.001247
   37  H  3  X    0.000062   0.000000  -0.000053  -0.000092  -0.000207
   38  H  3  Y    0.000028  -0.000007   0.000050   0.000040  -0.003485
   39  H  3  Z   -0.000051   0.000004  -0.000162  -0.000170   0.008797
   40  H  3  S    0.000211  -0.000185   0.000249  -0.000089   0.006146
   41  H  3  X    0.000136  -0.000188  -0.000299  -0.000503   0.005277
   42  H  3  Y   -0.000030  -0.000129  -0.000765  -0.000517  -0.001356
   43  H  3  Z    0.000606  -0.000066   0.001865   0.000883   0.001066
   44  H  4  S   -0.000151  -0.000004   0.000325   0.000290   0.065335
   45  H  4  S    0.004513  -0.000607   0.002696   0.005272  -0.000545
   46  H  4  X    0.000117   0.000020  -0.000032  -0.000007  -0.002839
   47  H  4  Y    0.000037  -0.000008   0.000163   0.000104  -0.006748
   48  H  4  Z   -0.000002  -0.000014   0.000159   0.000133  -0.005820
   49  H  4  S    0.000350  -0.000094   0.000121   0.000157   0.007124
   50  H  4  X    0.000040  -0.000014  -0.000369  -0.000692   0.002104
   51  H  4  Y   -0.000932  -0.000302  -0.000725  -0.001505   0.001484
   52  H  4  Z   -0.000905   0.000055  -0.000395  -0.001003  -0.000645
   53  C  5  S    0.708674  -0.708522  -0.042580  -0.050337  -0.018826
   54  C  5  S    0.005530  -0.005961  -0.000638  -0.000322   0.235373
   55  C  5  S   -0.025994   0.037314   0.007054   0.003962   0.102163
   56  C  5  X   -0.000052  -0.000170   0.000236   0.000020  -0.013830
   57  C  5  Y    0.000123   0.000099   0.000031   0.000082   0.039911
   58  C  5  Z   -0.000010   0.000006  -0.000014  -0.000052  -0.009077
   59  C  5  X   -0.010309  -0.010531   0.006213   0.014915   0.056513
   60  C  5  Y   -0.005268   0.013444   0.003630   0.000390   0.131855
   61  C  5  Z    0.002149  -0.001360  -0.002072  -0.001949  -0.012183
   62  C  5 XX   -0.000188   0.000202  -0.000066   0.000016   0.010332
   63  C  5 YY    0.000018  -0.000044   0.000031  -0.000052  -0.001251
   64  C  5 ZZ    0.000170  -0.000159   0.000036   0.000037  -0.009081
   65  C  5 XY    0.000059  -0.000094  -0.000008   0.000104  -0.005290
   66  C  5 XZ    0.000094  -0.000026   0.000007   0.000009  -0.003023
   67  C  5 YZ    0.000024   0.000006   0.000023  -0.000009  -0.001647
   68  C  5  S   -0.005070  -0.000762   0.001192  -0.000750  -0.057262
   69  C  5  X   -0.001326  -0.001664   0.000602   0.004294  -0.005382
   70  C  5  Y    0.000046  -0.000267   0.000571  -0.000201  -0.007638
   71  C  5  Z    0.000358   0.000551  -0.000461  -0.000437   0.004554
   72  C  5 XX    0.000099   0.002227   0.002571   0.001191  -0.020885
   73  C  5 YY   -0.001481   0.000815  -0.001286  -0.001397   0.048295
   74  C  5 ZZ    0.001382  -0.003042  -0.001285   0.000206  -0.027410
   75  C  5 XY   -0.002208  -0.003147   0.001395   0.003124   0.006602
   76  C  5 XZ    0.001187  -0.000514  -0.000174  -0.001897  -0.019327
   77  C  5 YZ    0.000779  -0.000623   0.000213  -0.000607  -0.018318
   78  H  6  S    0.000105  -0.000294  -0.000012  -0.000195   0.098870
   79  H  6  S    0.003214   0.000462   0.004388  -0.000089   0.043891
   80  H  6  X    0.000071   0.000064  -0.000041  -0.000070  -0.001353
   81  H  6  Y   -0.000079   0.000018  -0.000045  -0.000004   0.006447
   82  H  6  Z    0.000166  -0.000152   0.000020  -0.000027  -0.012321
   83  H  6  S    0.000025  -0.000711   0.000538   0.000369  -0.005156
   84  H  6  X    0.000083   0.000459  -0.000323   0.000157   0.002140
   85  H  6  Y    0.000298  -0.000327   0.000342  -0.000256   0.011573
   86  H  6  Z   -0.001428   0.000487  -0.000879   0.000071  -0.002268
   87  H  7  S    0.000081  -0.000335  -0.000227  -0.000026   0.104536
   88  H  7  S    0.003651   0.000947   0.002925   0.002842   0.073791
   89  H  7  X    0.000030   0.000094   0.000037  -0.000136   0.002160
   90  H  7  Y   -0.000126   0.000064  -0.000025   0.000020   0.010644
   91  H  7  Z   -0.000130   0.000111   0.000000   0.000043   0.009407
   92  H  7  S    0.000436  -0.000202   0.000484   0.000101  -0.009620
   93  H  7  X    0.000801   0.000141   0.000481  -0.000381  -0.008392
   94  H  7  Y    0.000899  -0.000498   0.000515   0.000418   0.017217
   95  H  7  Z    0.001063  -0.000335   0.000606   0.000680   0.005030
   96  C  8  S    0.708656   0.708540  -0.042664   0.050266  -0.018826
   97  C  8  S    0.005530   0.005961  -0.000639   0.000321   0.235373
   98  C  8  S   -0.025993  -0.037315   0.007061  -0.003950   0.102162
   99  C  8  X    0.000052  -0.000170  -0.000236   0.000020   0.013830
  100  C  8  Y   -0.000123   0.000099  -0.000031   0.000082  -0.039911
  101  C  8  Z   -0.000010  -0.000006  -0.000014   0.000052  -0.009077
  102  C  8  X    0.010309  -0.010531  -0.006238   0.014905  -0.056514
  103  C  8  Y    0.005268   0.013445  -0.003630   0.000384  -0.131855
  104  C  8  Z    0.002148   0.001360  -0.002075   0.001946  -0.012183
  105  C  8 XX   -0.000188  -0.000202  -0.000066  -0.000016   0.010332
  106  C  8 YY    0.000018   0.000044   0.000030   0.000052  -0.001251
  107  C  8 ZZ    0.000170   0.000159   0.000036  -0.000036  -0.009081
  108  C  8 XY    0.000059   0.000094  -0.000008  -0.000104  -0.005290
  109  C  8 XZ   -0.000094  -0.000026  -0.000007   0.000009   0.003023
  110  C  8 YZ   -0.000024   0.000006  -0.000023  -0.000009   0.001647
  111  C  8  S   -0.005070   0.000762   0.001191   0.000752  -0.057262
  112  C  8  X    0.001326  -0.001664  -0.000609   0.004293   0.005382
  113  C  8  Y   -0.000046  -0.000267  -0.000571  -0.000202   0.007638
  114  C  8  Z    0.000358  -0.000551  -0.000462   0.000436   0.004554
  115  C  8 XX    0.000099  -0.002227   0.002573  -0.001187  -0.020885
  116  C  8 YY   -0.001481  -0.000815  -0.001289   0.001394   0.048295
  117  C  8 ZZ    0.001382   0.003042  -0.001284  -0.000208  -0.027410
  118  C  8 XY   -0.002208   0.003147   0.001400  -0.003121   0.006602
  119  C  8 XZ   -0.001187  -0.000514   0.000177  -0.001897   0.019327
  120  C  8 YZ   -0.000779  -0.000623  -0.000212  -0.000608   0.018318
  121  H  9  S    0.000105   0.000294  -0.000013   0.000195   0.098869
  122  H  9  S    0.003214  -0.000462   0.004388   0.000096   0.043891
  123  H  9  X   -0.000071   0.000064   0.000041  -0.000070   0.001353
  124  H  9  Y    0.000079   0.000018   0.000045  -0.000004  -0.006447
  125  H  9  Z    0.000166   0.000152   0.000020   0.000027  -0.012320
  126  H  9  S    0.000025   0.000711   0.000538  -0.000368  -0.005156
  127  H  9  X   -0.000083   0.000459   0.000322   0.000158  -0.002140
  128  H  9  Y   -0.000298  -0.000327  -0.000341  -0.000256  -0.011574
  129  H  9  Z   -0.001428  -0.000487  -0.000879  -0.000073  -0.002268
  130  H 10  S    0.000081   0.000335  -0.000227   0.000026   0.104536
  131  H 10  S    0.003651  -0.000947   0.002930  -0.002837   0.073791
  132  H 10  X   -0.000030   0.000094  -0.000036  -0.000136  -0.002160
  133  H 10  Y    0.000126   0.000064   0.000025   0.000020  -0.010644
  134  H 10  Z   -0.000130  -0.000111   0.000000  -0.000043   0.009407
  135  H 10  S    0.000436   0.000202   0.000484  -0.000100  -0.009620
  136  H 10  X   -0.000801   0.000141  -0.000481  -0.000382   0.008392
  137  H 10  Y   -0.000899  -0.000498  -0.000516   0.000418  -0.017217
  138  H 10  Z    0.001063   0.000335   0.000607  -0.000679   0.005030
  139  C 11  S    0.042022   0.050187   0.709166  -0.707660  -0.011454
  140  C 11  S   -0.000185   0.000380   0.005311  -0.005606   0.156206
  141  C 11  S    0.008618   0.001526  -0.025321   0.030251   0.023230
  142  C 11  X    0.000084   0.000205  -0.000067   0.000070   0.047480
  143  C 11  Y    0.000073   0.000083  -0.000041   0.000050   0.016311
  144  C 11  Z    0.000018   0.000068  -0.000010   0.000035   0.011045
  145  C 11  X    0.010485   0.004894  -0.005694   0.008358  -0.004436
  146  C 11  Y    0.004001   0.000161  -0.002796   0.003984   0.032058
  147  C 11  Z    0.002399   0.000710  -0.001291   0.002202   0.008708
  148  C 11 XX    0.000037   0.000013  -0.000096   0.000132   0.007344
  149  C 11 YY    0.000002  -0.000028   0.000050  -0.000038  -0.003281
  150  C 11 ZZ   -0.000039   0.000014   0.000046  -0.000094  -0.004063
  151  C 11 XY   -0.000052  -0.000095  -0.000115   0.000174   0.007732
  152  C 11 XZ   -0.000017  -0.000004  -0.000094   0.000086   0.004201
  153  C 11 YZ   -0.000011  -0.000022  -0.000057   0.000042   0.001891
  154  C 11  S    0.000306  -0.005112  -0.006347   0.011415   0.044601
  155  C 11  X    0.000933  -0.000899  -0.000862   0.002451   0.023433
  156  C 11  Y    0.000603  -0.000172  -0.000395   0.000597   0.007348
  157  C 11  Z    0.000172  -0.000200  -0.000008   0.000908   0.003433
  158  C 11 XX    0.002284   0.001336  -0.000672   0.001412  -0.017498
  159  C 11 YY   -0.001163  -0.000765   0.000143  -0.000508   0.014279
  160  C 11 ZZ   -0.001121  -0.000572   0.000529  -0.000904   0.003219
  161  C 11 XY    0.000960   0.000701  -0.000999   0.001775   0.013702
  162  C 11 XZ    0.001444   0.000177  -0.000835   0.000175  -0.004377
  163  C 11 YZ   -0.000033   0.000173  -0.000481   0.000296   0.009776
  164  H 12  S   -0.000097  -0.000006   0.000310  -0.000271   0.060377
  165  H 12  S    0.002352   0.004095   0.003011  -0.003420   0.015661
  166  H 12  X   -0.000076  -0.000029  -0.000104   0.000083   0.007085
  167  H 12  Y    0.000028   0.000055   0.000197  -0.000178  -0.006588
  168  H 12  Z    0.000025  -0.000009   0.000012  -0.000043  -0.000624
  169  H 12  S    0.000616  -0.000502   0.000245   0.000758   0.007101
  170  H 12  X    0.000345   0.001116   0.000962  -0.001348  -0.005292
  171  H 12  Y   -0.000213  -0.000491  -0.000387   0.000610  -0.013360
  172  H 12  Z    0.000249  -0.000047   0.000059  -0.000230  -0.006405
  173  H 13  S   -0.000014  -0.000086   0.000283  -0.000394   0.064951
  174  H 13  S    0.003260   0.000928   0.005654  -0.003017  -0.001247
  175  H 13  X   -0.000062   0.000000   0.000053  -0.000092   0.000207
  176  H 13  Y   -0.000028  -0.000007  -0.000050   0.000039   0.003485
  177  H 13  Z   -0.000051  -0.000004  -0.000162   0.000170   0.008797
  178  H 13  S    0.000211   0.000185   0.000249   0.000090   0.006146
  179  H 13  X   -0.000136  -0.000188   0.000300  -0.000502  -0.005277
  180  H 13  Y    0.000030  -0.000129   0.000765  -0.000516   0.001356
  181  H 13  Z    0.000606   0.000066   0.001866  -0.000880   0.001066
  182  H 14  S   -0.000151   0.000004   0.000326  -0.000290   0.065335
  183  H 14  S    0.004513   0.000607   0.002704  -0.005267  -0.000546
  184  H 14  X   -0.000117   0.000020   0.000032  -0.000007   0.002839
  185  H 14  Y   -0.000037  -0.000008  -0.000163   0.000104   0.006747
  186  H 14  Z   -0.000002   0.000014   0.000159  -0.000133  -0.005820
  187  H 14  S    0.000350   0.000094   0.000121  -0.000157   0.007124
  188  H 14  X   -0.000040  -0.000014   0.000370  -0.000691  -0.002104
  189  H 14  Y    0.000932  -0.000302   0.000727  -0.001504  -0.001484
  190  H 14  Z   -0.000905  -0.000055  -0.000397   0.001002  -0.000645

                      6          7          8          9         10
                   -0.9820    -0.8632    -0.7902    -0.6352    -0.5831
                     A          A          A          A          A   
    1  C  1  S    0.014409  -0.009951   0.002013   0.000556   0.001088
    2  C  1  S   -0.244076   0.218522  -0.106517   0.009687   0.007533
    3  C  1  S   -0.005740   0.031222  -0.036772   0.020414  -0.025960
    4  C  1  X    0.023918   0.071261  -0.071548   0.069086  -0.060047
    5  C  1  Y    0.016226   0.022311  -0.075883   0.000632   0.243065
    6  C  1  Z   -0.007429  -0.019117   0.025404   0.153588   0.017490
    7  C  1  X   -0.027484   0.038800  -0.059790   0.031928   0.012100
    8  C  1  Y   -0.009384   0.047346  -0.060306   0.017238   0.049183
    9  C  1  Z    0.020129  -0.016420  -0.000753   0.034500   0.005006
   10  C  1 XX   -0.004135  -0.005620   0.006527  -0.002392  -0.006688
   11  C  1 YY    0.001163   0.002608  -0.000210   0.004236  -0.004375
   12  C  1 ZZ    0.002972   0.003012  -0.006317  -0.001844   0.011064
   13  C  1 XY   -0.005250  -0.005668   0.010149  -0.003111   0.005447
   14  C  1 XZ    0.002639   0.003291  -0.004508  -0.005871   0.001738
   15  C  1 YZ    0.001524   0.001389  -0.003286   0.004626   0.007228
   16  C  1  S   -0.025017   0.043721  -0.071798  -0.042259   0.059251
   17  C  1  X    0.010269  -0.016291   0.019739   0.011282  -0.003498
   18  C  1  Y    0.001107  -0.004428  -0.004616   0.013297  -0.005482
   19  C  1  Z   -0.005305   0.003912   0.002058   0.000090   0.009959
   20  C  1 XX   -0.000051   0.009515   0.018543  -0.008387   0.008798
   21  C  1 YY    0.000236  -0.007636  -0.012277  -0.010436   0.019214
   22  C  1 ZZ   -0.000185  -0.001880  -0.006266   0.018823  -0.028012
   23  C  1 XY    0.006264  -0.009897   0.006444   0.005539  -0.017153
   24  C  1 XZ   -0.002702   0.001801   0.012292   0.010448   0.008039
   25  C  1 YZ   -0.003039   0.007070   0.004828  -0.022439  -0.015917
   26  H  2  S   -0.115607   0.138922  -0.057464   0.052298  -0.181725
   27  H  2  S    0.001990   0.041151  -0.052186   0.045465  -0.144162
   28  H  2  X    0.011932  -0.011556   0.004046  -0.001542   0.009012
   29  H  2  Y   -0.010744   0.011805  -0.006325   0.002832  -0.002870
   30  H  2  Z    0.000340  -0.000808   0.000698   0.003705   0.000801
   31  H  2  S   -0.004478   0.003614  -0.014397   0.000793   0.003735
   32  H  2  X   -0.002357  -0.016110   0.019179  -0.004252   0.007195
   33  H  2  Y   -0.002879   0.003197  -0.011479   0.004872  -0.017689
   34  H  2  Z    0.000290   0.002946  -0.003451  -0.012061  -0.001985
   35  H  3  S   -0.112159   0.130227  -0.094544  -0.117267   0.071107
   36  H  3  S   -0.000909   0.032893   0.015069  -0.104099   0.084216
   37  H  3  X   -0.000257   0.002504  -0.000977   0.000601  -0.001122
   38  H  3  Y    0.005988  -0.006029   0.002611   0.003483   0.004106
   39  H  3  Z   -0.014383   0.014764  -0.009042  -0.004989   0.006396
   40  H  3  S   -0.001610   0.004983   0.009695  -0.007172   0.005400
   41  H  3  X   -0.005689   0.000408   0.006424  -0.000360  -0.000591
   42  H  3  Y   -0.000792  -0.002946   0.002596   0.000855  -0.020047
   43  H  3  Z   -0.000554   0.009378   0.005365  -0.017775   0.014308
   44  H  4  S   -0.111356   0.127563  -0.097899   0.100989   0.160676
   45  H  4  S   -0.029499   0.017099   0.021348   0.029609   0.102671
   46  H  4  X    0.003598  -0.002005   0.001099  -0.000493  -0.005083
   47  H  4  Y    0.011795  -0.011858   0.006622  -0.006626  -0.003559
   48  H  4  Z    0.009678  -0.010645   0.007369  -0.001789  -0.007985
   49  H  4  S    0.006629   0.004499   0.000663  -0.008148  -0.007780
   50  H  4  X    0.001530  -0.001270  -0.009231  -0.000270  -0.003773
   51  H  4  Y    0.008173  -0.004178  -0.000974   0.010799  -0.017378
   52  H  4  Z    0.009988  -0.002332  -0.006837  -0.006515  -0.002095
   53  C  5  S    0.009231   0.005293  -0.004790  -0.000342   0.000149
   54  C  5  S   -0.135029  -0.151809   0.209616  -0.004272  -0.001258
   55  C  5  S   -0.026338  -0.010773   0.033418  -0.027784   0.079472
   56  C  5  X   -0.092152   0.105026   0.011626   0.042621  -0.134800
   57  C  5  Y   -0.002547   0.000805  -0.137118  -0.007733   0.172223
   58  C  5  Z    0.012466  -0.027755   0.012044   0.246812   0.026241
   59  C  5  X   -0.187132   0.096659  -0.018220   0.032425  -0.059065
   60  C  5  Y    0.017637  -0.021010  -0.024257   0.016552   0.104848
   61  C  5  Z    0.029670  -0.018662   0.020640   0.104273   0.006202
   62  C  5 XX   -0.005681   0.006521  -0.008013   0.000415   0.002486
   63  C  5 YY    0.003601  -0.005647  -0.003447  -0.005843   0.005474
   64  C  5 ZZ    0.002080  -0.000873   0.011460   0.005427  -0.007959
   65  C  5 XY   -0.015119   0.015879   0.006168  -0.000752  -0.004828
   66  C  5 XZ    0.005241  -0.003902   0.003337  -0.002427   0.000006
   67  C  5 YZ    0.002096  -0.002145   0.001793  -0.006389  -0.003171
   68  C  5  S    0.011965  -0.041402   0.024003   0.049175  -0.049106
   69  C  5  X   -0.007105  -0.000736   0.016470   0.023760  -0.041042
   70  C  5  Y    0.003116  -0.006772   0.004230   0.014902  -0.009256
   71  C  5  Z    0.005734  -0.000717  -0.007556  -0.004305   0.000752
   72  C  5 XX   -0.024988   0.020175   0.031938   0.004653  -0.040572
   73  C  5 YY    0.010593  -0.027802   0.008077   0.007846   0.033627
   74  C  5 ZZ    0.014395   0.007627  -0.040015  -0.012498   0.006946
   75  C  5 XY   -0.045053   0.015899  -0.003766   0.000412   0.023351
   76  C  5 XZ    0.004522   0.001641   0.012610   0.006785   0.014227
   77  C  5 YZ    0.009083   0.005566   0.002449   0.039230   0.015167
   78  H  6  S   -0.064867  -0.091989   0.166679   0.188043  -0.053456
   79  H  6  S   -0.006469  -0.015666   0.093226   0.059754  -0.016669
   80  H  6  X    0.000060   0.001642  -0.001447   0.000041  -0.003027
   81  H  6  Y   -0.004011  -0.005160   0.004725   0.006035   0.001736
   82  H  6  Z    0.007170   0.009383  -0.015539  -0.008234   0.005515
   83  H  6  S    0.003105  -0.001092   0.005825   0.005436  -0.002030
   84  H  6  X    0.008972  -0.010629  -0.004203  -0.007200   0.010418
   85  H  6  Y    0.001849  -0.005163   0.017060  -0.015186  -0.009004
   86  H  6  Z   -0.003486   0.001959  -0.011209   0.000352  -0.000423
   87  H  7  S   -0.058997  -0.079731   0.178444  -0.145093  -0.098987
   88  H  7  S   -0.022726  -0.022909   0.094644  -0.012459  -0.109503
   89  H  7  X   -0.002023  -0.000531   0.005130  -0.001132  -0.004912
   90  H  7  Y   -0.006021  -0.007082   0.011616  -0.008789  -0.001638
   91  H  7  Z   -0.004928  -0.006798   0.012777  -0.001020  -0.005784
   92  H  7  S    0.005152  -0.009994   0.001878   0.009860  -0.005137
   93  H  7  X    0.002199  -0.005005   0.009691  -0.003469   0.020134
   94  H  7  Y   -0.004717  -0.005829   0.027157   0.027409  -0.016891
   95  H  7  Z   -0.004309   0.003092   0.006000   0.009581  -0.019712
   96  C  8  S   -0.009231   0.005293   0.004790  -0.000342   0.000149
   97  C  8  S    0.135029  -0.151809  -0.209616  -0.004272  -0.001268
   98  C  8  S    0.026337  -0.010772  -0.033418  -0.027783   0.079465
   99  C  8  X   -0.092152  -0.105026   0.011626  -0.042620   0.134828
  100  C  8  Y   -0.002547  -0.000805  -0.137118   0.007735  -0.172195
  101  C  8  Z   -0.012466  -0.027755  -0.012044   0.246811   0.026219
  102  C  8  X   -0.187132  -0.096658  -0.018221  -0.032425   0.059069
  103  C  8  Y    0.017637   0.021010  -0.024257  -0.016554  -0.104828
  104  C  8  Z   -0.029670  -0.018661  -0.020640   0.104273   0.006190
  105  C  8 XX    0.005681   0.006521   0.008013   0.000415   0.002486
  106  C  8 YY   -0.003601  -0.005647   0.003447  -0.005843   0.005473
  107  C  8 ZZ   -0.002080  -0.000873  -0.011460   0.005427  -0.007959
  108  C  8 XY    0.015119   0.015879  -0.006168  -0.000752  -0.004830
  109  C  8 XZ    0.005241   0.003902   0.003337   0.002427  -0.000006
  110  C  8 YZ    0.002096   0.002145   0.001793   0.006389   0.003168
  111  C  8  S   -0.011964  -0.041401  -0.024004   0.049168  -0.049084
  112  C  8  X   -0.007105   0.000736   0.016470  -0.023760   0.041051
  113  C  8  Y    0.003116   0.006772   0.004230  -0.014901   0.009254
  114  C  8  Z   -0.005734  -0.000717   0.007557  -0.004305   0.000754
  115  C  8 XX    0.024988   0.020175  -0.031938   0.004653  -0.040574
  116  C  8 YY   -0.010593  -0.027802  -0.008077   0.007845   0.033624
  117  C  8 ZZ   -0.014395   0.007628   0.040015  -0.012499   0.006950
  118  C  8 XY    0.045053   0.015899   0.003766   0.000412   0.023352
  119  C  8 XZ    0.004522  -0.001641   0.012611  -0.006784  -0.014228
  120  C  8 YZ    0.009083  -0.005566   0.002450  -0.039230  -0.015163
  121  H  9  S    0.064867  -0.091989  -0.166679   0.188043  -0.053471
  122  H  9  S    0.006469  -0.015667  -0.093226   0.059756  -0.016683
  123  H  9  X    0.000060  -0.001642  -0.001447  -0.000041   0.003027
  124  H  9  Y   -0.004011   0.005160   0.004725  -0.006035  -0.001734
  125  H  9  Z   -0.007170   0.009383   0.015539  -0.008233   0.005515
  126  H  9  S   -0.003105  -0.001092  -0.005826   0.005436  -0.002031
  127  H  9  X    0.008972   0.010629  -0.004203   0.007200  -0.010419
  128  H  9  Y    0.001848   0.005164   0.017060   0.015186   0.009003
  129  H  9  Z    0.003486   0.001960   0.011209   0.000352  -0.000423
  130  H 10  S    0.058997  -0.079731  -0.178444  -0.145093  -0.098958
  131  H 10  S    0.022727  -0.022909  -0.094643  -0.012456  -0.109503
  132  H 10  X   -0.002023   0.000531   0.005130   0.001132   0.004912
  133  H 10  Y   -0.006021   0.007082   0.011616   0.008789   0.001637
  134  H 10  Z    0.004928  -0.006798  -0.012777  -0.001020  -0.005783
  135  H 10  S   -0.005152  -0.009994  -0.001878   0.009860  -0.005135
  136  H 10  X    0.002199   0.005005   0.009691   0.003469  -0.020133
  137  H 10  Y   -0.004717   0.005829   0.027157  -0.027409   0.016894
  138  H 10  Z    0.004309   0.003092  -0.006000   0.009581  -0.019713
  139  C 11  S   -0.014409  -0.009951  -0.002013   0.000556   0.001089
  140  C 11  S    0.244076   0.218522   0.106517   0.009687   0.007536
  141  C 11  S    0.005740   0.031223   0.036771   0.020414  -0.025963
  142  C 11  X    0.023918  -0.071260  -0.071549  -0.069087   0.060011
  143  C 11  Y    0.016226  -0.022311  -0.075883  -0.000631  -0.243047
  144  C 11  Z    0.007429  -0.019117  -0.025404   0.153587   0.017449
  145  C 11  X   -0.027484  -0.038800  -0.059791  -0.031929  -0.012119
  146  C 11  Y   -0.009384  -0.047346  -0.060306  -0.017239  -0.049183
  147  C 11  Z   -0.020129  -0.016419   0.000753   0.034500   0.004990
  148  C 11 XX    0.004135  -0.005620  -0.006527  -0.002392  -0.006689
  149  C 11 YY   -0.001163   0.002608   0.000210   0.004236  -0.004375
  150  C 11 ZZ   -0.002972   0.003012   0.006317  -0.001844   0.011064
  151  C 11 XY    0.005250  -0.005668  -0.010149  -0.003111   0.005444
  152  C 11 XZ    0.002639  -0.003291  -0.004508   0.005871  -0.001739
  153  C 11 YZ    0.001524  -0.001389  -0.003286  -0.004626  -0.007226
  154  C 11  S    0.025017   0.043720   0.071799  -0.042257   0.059259
  155  C 11  X    0.010269   0.016291   0.019739  -0.011282   0.003501
  156  C 11  Y    0.001107   0.004428  -0.004616  -0.013297   0.005481
  157  C 11  Z    0.005305   0.003912  -0.002058   0.000090   0.009958
  158  C 11 XX    0.000051   0.009515  -0.018543  -0.008386   0.008795
  159  C 11 YY   -0.000236  -0.007636   0.012277  -0.010436   0.019215
  160  C 11 ZZ    0.000185  -0.001880   0.006266   0.018823  -0.028010
  161  C 11 XY   -0.006264  -0.009897  -0.006444   0.005538  -0.017150
  162  C 11 XZ   -0.002702  -0.001801   0.012292  -0.010448  -0.008039
  163  C 11 YZ   -0.003039  -0.007070   0.004828   0.022439   0.015911
  164  H 12  S    0.115607   0.138922   0.057464   0.052299  -0.181691
  165  H 12  S   -0.001990   0.041151   0.052185   0.045465  -0.144139
  166  H 12  X    0.011932   0.011556   0.004046   0.001542  -0.009011
  167  H 12  Y   -0.010744  -0.011805  -0.006325  -0.002832   0.002869
  168  H 12  Z   -0.000340  -0.000808  -0.000698   0.003705   0.000800
  169  H 12  S    0.004478   0.003614   0.014397   0.000793   0.003738
  170  H 12  X   -0.002357   0.016110   0.019179   0.004252  -0.007192
  171  H 12  Y   -0.002879  -0.003197  -0.011479  -0.004872   0.017687
  172  H 12  Z   -0.000290   0.002946   0.003451  -0.012061  -0.001983
  173  H 13  S    0.112159   0.130227   0.094544  -0.117267   0.071136
  174  H 13  S    0.000909   0.032893  -0.015069  -0.104098   0.084224
  175  H 13  X   -0.000257  -0.002504  -0.000977  -0.000601   0.001121
  176  H 13  Y    0.005988   0.006029   0.002611  -0.003483  -0.004105
  177  H 13  Z    0.014383   0.014763   0.009042  -0.004989   0.006397
  178  H 13  S    0.001610   0.004983  -0.009695  -0.007172   0.005399
  179  H 13  X   -0.005689  -0.000408   0.006424   0.000360   0.000591
  180  H 13  Y   -0.000792   0.002946   0.002596  -0.000855   0.020045
  181  H 13  Z    0.000554   0.009378  -0.005365  -0.017775   0.014309
  182  H 14  S    0.111356   0.127563   0.097899   0.100988   0.160649
  183  H 14  S    0.029499   0.017100  -0.021347   0.029609   0.102649
  184  H 14  X    0.003598   0.002005   0.001099   0.000493   0.005082
  185  H 14  Y    0.011795   0.011858   0.006622   0.006626   0.003558
  186  H 14  Z   -0.009678  -0.010645  -0.007369  -0.001789  -0.007985
  187  H 14  S   -0.006629   0.004499  -0.000663  -0.008148  -0.007779
  188  H 14  X    0.001530   0.001270  -0.009231   0.000270   0.003774
  189  H 14  Y    0.008173   0.004178  -0.000974  -0.010799   0.017376
  190  H 14  Z   -0.009988  -0.002332   0.006836  -0.006515  -0.002093

                     11         12         13         14         15
                   -0.5825    -0.5610    -0.5129    -0.5003    -0.4650
                     A          A          A          A          A   
    1  C  1  S    0.000434  -0.001167   0.000239  -0.000112   0.000876
    2  C  1  S    0.013441  -0.001016  -0.009421   0.010688  -0.042303
    3  C  1  S   -0.017469  -0.048192  -0.065252   0.013179  -0.112875
    4  C  1  X    0.166569   0.216900   0.055945  -0.043275   0.175596
    5  C  1  Y   -0.081706  -0.042388   0.278446  -0.023489   0.158815
    6  C  1  Z   -0.181751   0.186304  -0.025100   0.260440   0.014078
    7  C  1  X    0.089814   0.072842   0.069192  -0.038904   0.176226
    8  C  1  Y    0.002879   0.018166   0.077071  -0.020589   0.058206
    9  C  1  Z   -0.073668   0.025444  -0.027527   0.049315  -0.018213
   10  C  1 XX   -0.003796  -0.001336  -0.017993   0.009291  -0.016861
   11  C  1 YY    0.001631   0.009240   0.003335   0.005771   0.011270
   12  C  1 ZZ    0.002166  -0.007904   0.014658  -0.015062   0.005591
   13  C  1 XY   -0.013600  -0.010526   0.007136   0.007230   0.001622
   14  C  1 XZ    0.006962   0.001723   0.006668   0.004012   0.009710
   15  C  1 YZ   -0.006414   0.010960   0.006730   0.016830   0.008011
   16  C  1  S    0.033316   0.006320   0.065011  -0.035163   0.129017
   17  C  1  X   -0.010119   0.002214  -0.004857   0.000303  -0.014407
   18  C  1  Y    0.004850  -0.002778  -0.010795   0.007590  -0.013148
   19  C  1  Z   -0.004599   0.009165  -0.000096  -0.001463   0.008112
   20  C  1 XX   -0.013309   0.013626   0.011977   0.002448  -0.012927
   21  C  1 YY    0.003959  -0.030042   0.005191  -0.010710   0.011828
   22  C  1 ZZ    0.009350   0.016416  -0.017168   0.008262   0.001099
   23  C  1 XY    0.013332  -0.002574  -0.021259   0.000616  -0.012415
   24  C  1 XZ   -0.000283   0.018619  -0.000903   0.010885   0.006413
   25  C  1 YZ    0.023550  -0.012384  -0.011060  -0.016640  -0.010536
   26  H  2  S    0.160832   0.178703  -0.152392   0.001370  -0.010954
   27  H  2  S    0.109468   0.118128  -0.190252   0.018516  -0.106822
   28  H  2  X   -0.006645  -0.006327   0.010036  -0.000959   0.005231
   29  H  2  Y    0.006624   0.008580   0.000952  -0.000760   0.005745
   30  H  2  Z   -0.005263   0.005150  -0.000258   0.008386   0.000223
   31  H  2  S    0.015697  -0.000467  -0.014074   0.001380  -0.004104
   32  H  2  X   -0.011582  -0.020764   0.022343  -0.003259   0.021969
   33  H  2  Y    0.011928   0.002996  -0.027694   0.001199  -0.017258
   34  H  2  Z    0.008473  -0.009901   0.000668  -0.007526  -0.003193
   35  H  3  S    0.122257  -0.178726   0.114694  -0.237435   0.015726
   36  H  3  S    0.033654  -0.133599   0.090552  -0.234232  -0.004111
   37  H  3  X    0.004575   0.006521   0.001449  -0.000267   0.004459
   38  H  3  Y   -0.006670   0.004239   0.004504   0.007375   0.004310
   39  H  3  Z    0.005591  -0.007679   0.008790  -0.009729   0.001631
   40  H  3  S   -0.004060   0.009719   0.005376  -0.008955   0.014932
   41  H  3  X   -0.002174  -0.000442  -0.002633   0.009308  -0.004216
   42  H  3  Y    0.007934   0.006418  -0.015262   0.016983  -0.004180
   43  H  3  Z    0.003387  -0.016684   0.011525  -0.041001  -0.001033
   44  H  4  S   -0.114766   0.122605   0.188113   0.143020   0.147289
   45  H  4  S   -0.100927   0.094971   0.195083   0.170404   0.121771
   46  H  4  X    0.006125   0.003862  -0.002623  -0.004123   0.000886
   47  H  4  Y    0.003932  -0.009449  -0.003693  -0.009248  -0.003240
   48  H  4  Z    0.000449  -0.001298  -0.010680   0.001415  -0.005493
   49  H  4  S    0.003833   0.000623   0.018437   0.005366   0.002558
   50  H  4  X   -0.006969  -0.012756  -0.013583  -0.014198  -0.008376
   51  H  4  Y    0.008671  -0.003153  -0.033921  -0.022069  -0.018562
   52  H  4  Z    0.010573  -0.017577  -0.018679  -0.023135  -0.006334
   53  C  5  S    0.001039   0.002613  -0.000446  -0.000269  -0.000406
   54  C  5  S   -0.046352  -0.033845   0.006779   0.009624  -0.029887
   55  C  5  S   -0.034862  -0.069644  -0.038071   0.037811  -0.106446
   56  C  5  X   -0.128365  -0.068158  -0.141439   0.063670  -0.107802
   57  C  5  Y   -0.125579  -0.067628  -0.134715   0.031127  -0.262404
   58  C  5  Z   -0.094540   0.112876   0.033538  -0.171969  -0.024757
   59  C  5  X   -0.013921   0.025272  -0.085813   0.055802   0.005836
   60  C  5  Y   -0.090289  -0.063343  -0.008750   0.022884  -0.048513
   61  C  5  Z   -0.053190   0.093448   0.029797  -0.026616  -0.004842
   62  C  5 XX    0.001648   0.002181  -0.009959   0.011387  -0.028649
   63  C  5 YY   -0.004560  -0.004225   0.001040   0.000780   0.015554
   64  C  5 ZZ    0.002912   0.002044   0.008919  -0.012167   0.013095
   65  C  5 XY   -0.006766  -0.006851   0.004073   0.008548  -0.000090
   66  C  5 XZ   -0.003939   0.011920   0.007331   0.010849   0.010900
   67  C  5 YZ    0.011933  -0.002914   0.000731   0.008395   0.009914
   68  C  5  S    0.104678  -0.019003  -0.177979   0.036098  -0.150257
   69  C  5  X   -0.040280  -0.008130  -0.006065   0.025498  -0.050206
   70  C  5  Y    0.011350  -0.002397  -0.033527   0.004908  -0.045390
   71  C  5  Z    0.008859   0.003233   0.009532  -0.007672   0.011506
   72  C  5 XX   -0.007060   0.028355   0.011802   0.002483   0.002297
   73  C  5 YY   -0.009770  -0.004020   0.001891   0.003326   0.024634
   74  C  5 ZZ    0.016830  -0.024334  -0.013693  -0.005809  -0.026931
   75  C  5 XY    0.003171   0.005870   0.001945   0.003561   0.012388
   76  C  5 XZ    0.001125   0.006513  -0.006548   0.009149  -0.019009
   77  C  5 YZ   -0.016155   0.025536  -0.001923  -0.012733  -0.029274
   78  H  6  S   -0.064738   0.089217   0.081668  -0.155087   0.070531
   79  H  6  S   -0.060397   0.018995   0.079170  -0.152967   0.092248
   80  H  6  X   -0.002989  -0.004114  -0.003426   0.000738  -0.003826
   81  H  6  Y   -0.005882   0.001425  -0.001019  -0.005226  -0.004495
   82  H  6  Z    0.001656  -0.002747  -0.005955   0.006513  -0.006224
   83  H  6  S   -0.006162  -0.001448  -0.002412   0.001484   0.001476
   84  H  6  X    0.004182  -0.011847   0.009822  -0.010185   0.003974
   85  H  6  Y    0.001604  -0.011425   0.009423  -0.009881   0.026847
   86  H  6  Z    0.002339   0.010160  -0.010021   0.030944  -0.007891
   87  H  7  S    0.126222  -0.031301   0.097556   0.080112   0.219490
   88  H  7  S   -0.000905   0.001155   0.148823   0.101576   0.264984
   89  H  7  X   -0.002492  -0.001551  -0.000388   0.004324   0.000150
   90  H  7  Y    0.004200  -0.003013   0.003069   0.005714   0.004808
   91  H  7  Z    0.004666   0.000682   0.007146  -0.001383   0.009754
   92  H  7  S    0.007894   0.004738  -0.006352  -0.003200  -0.004946
   93  H  7  X   -0.003501   0.007330   0.011989   0.009525   0.011940
   94  H  7  Y   -0.015182   0.013247   0.031424   0.016920   0.045064
   95  H  7  Z   -0.003218  -0.004722   0.019675   0.008619   0.017564
   96  C  8  S   -0.001039  -0.002613   0.000446  -0.000269  -0.000406
   97  C  8  S    0.046351   0.033845  -0.006779   0.009625  -0.029888
   98  C  8  S    0.034880   0.069644   0.038071   0.037811  -0.106451
   99  C  8  X   -0.128335  -0.068159  -0.141439  -0.063668   0.107802
  100  C  8  Y   -0.125617  -0.067627  -0.134715  -0.031125   0.262403
  101  C  8  Z    0.094548  -0.112876  -0.033540  -0.171968  -0.024727
  102  C  8  X   -0.013909   0.025271  -0.085814  -0.055799  -0.005843
  103  C  8  Y   -0.090313  -0.063343  -0.008750  -0.022884   0.048517
  104  C  8  Z    0.053192  -0.093448  -0.029797  -0.026616  -0.004842
  105  C  8 XX   -0.001648  -0.002181   0.009959   0.011387  -0.028650
  106  C  8 YY    0.004562   0.004224  -0.001040   0.000780   0.015553
  107  C  8 ZZ   -0.002914  -0.002044  -0.008919  -0.012167   0.013097
  108  C  8 XY    0.006765   0.006851  -0.004073   0.008548  -0.000091
  109  C  8 XZ   -0.003939   0.011920   0.007330  -0.010849  -0.010901
  110  C  8 YZ    0.011934  -0.002914   0.000731  -0.008395  -0.009910
  111  C  8  S   -0.104690   0.019005   0.177980   0.036096  -0.150271
  112  C  8  X   -0.040271  -0.008131  -0.006065  -0.025498   0.050204
  113  C  8  Y    0.011352  -0.002397  -0.033527  -0.004908   0.045394
  114  C  8  Z   -0.008859  -0.003233  -0.009532  -0.007672   0.011502
  115  C  8 XX    0.007051  -0.028355  -0.011802   0.002483   0.002300
  116  C  8 YY    0.009778   0.004020  -0.001891   0.003327   0.024635
  117  C  8 ZZ   -0.016828   0.024335   0.013693  -0.005810  -0.026935
  118  C  8 XY   -0.003165  -0.005870  -0.001945   0.003561   0.012392
  119  C  8 XZ    0.001122   0.006513  -0.006548  -0.009149   0.019009
  120  C  8 YZ   -0.016158   0.025536  -0.001922   0.012733   0.029272
  121  H  9  S    0.064727  -0.089217  -0.081671  -0.155086   0.070560
  122  H  9  S    0.060394  -0.018996  -0.079173  -0.152966   0.092290
  123  H  9  X   -0.002989  -0.004114  -0.003426  -0.000738   0.003826
  124  H  9  Y   -0.005882   0.001425  -0.001019   0.005227   0.004494
  125  H  9  Z   -0.001655   0.002747   0.005955   0.006512  -0.006225
  126  H  9  S    0.006161   0.001448   0.002412   0.001484   0.001478
  127  H  9  X    0.004180  -0.011847   0.009822   0.010185  -0.003974
  128  H  9  Y    0.001606  -0.011424   0.009424   0.009881  -0.026852
  129  H  9  Z   -0.002339  -0.010160   0.010021   0.030944  -0.007898
  130  H 10  S   -0.126244   0.031302  -0.097555   0.080114   0.219467
  131  H 10  S    0.000882  -0.001155  -0.148820   0.101579   0.264952
  132  H 10  X   -0.002491  -0.001551  -0.000388  -0.004324  -0.000150
  133  H 10  Y    0.004200  -0.003013   0.003069  -0.005714  -0.004807
  134  H 10  Z   -0.004667  -0.000682  -0.007146  -0.001383   0.009754
  135  H 10  S   -0.007895  -0.004738   0.006352  -0.003200  -0.004949
  136  H 10  X   -0.003506   0.007330   0.011989  -0.009525  -0.011940
  137  H 10  Y   -0.015178   0.013247   0.031423  -0.016921  -0.045060
  138  H 10  Z    0.003213   0.004723  -0.019675   0.008619   0.017559
  139  C 11  S   -0.000433   0.001167  -0.000239  -0.000113   0.000876
  140  C 11  S   -0.013439   0.001016   0.009421   0.010688  -0.042304
  141  C 11  S    0.017463   0.048192   0.065252   0.013179  -0.112884
  142  C 11  X    0.166581   0.216900   0.055945   0.043274  -0.175600
  143  C 11  Y   -0.081760  -0.042387   0.278445   0.023485  -0.158814
  144  C 11  Z    0.181756  -0.186303   0.025104   0.260440   0.014061
  145  C 11  X    0.089810   0.072842   0.069192   0.038904  -0.176234
  146  C 11  Y    0.002868   0.018166   0.077071   0.020589  -0.058208
  147  C 11  Z    0.073669  -0.025444   0.027527   0.049315  -0.018217
  148  C 11 XX    0.003795   0.001336   0.017994   0.009291  -0.016862
  149  C 11 YY   -0.001632  -0.009240  -0.003335   0.005771   0.011270
  150  C 11 ZZ   -0.002163   0.007904  -0.014658  -0.015062   0.005592
  151  C 11 XY    0.013601   0.010526  -0.007136   0.007230   0.001622
  152  C 11 XZ    0.006962   0.001723   0.006668  -0.004012  -0.009709
  153  C 11 YZ   -0.006416   0.010960   0.006730  -0.016830  -0.008009
  154  C 11  S   -0.033302  -0.006322  -0.065012  -0.035163   0.129019
  155  C 11  X   -0.010118   0.002214  -0.004857  -0.000303   0.014407
  156  C 11  Y    0.004852  -0.002778  -0.010795  -0.007590   0.013148
  157  C 11  Z    0.004601  -0.009166   0.000096  -0.001463   0.008114
  158  C 11 XX    0.013311  -0.013627  -0.011977   0.002449  -0.012927
  159  C 11 YY   -0.003955   0.030042  -0.005192  -0.010710   0.011829
  160  C 11 ZZ   -0.009357  -0.016415   0.017168   0.008261   0.001098
  161  C 11 XY   -0.013336   0.002574   0.021259   0.000616  -0.012416
  162  C 11 XZ   -0.000285   0.018619  -0.000903  -0.010885  -0.006414
  163  C 11 YZ    0.023554  -0.012384  -0.011060   0.016640   0.010534
  164  H 12  S   -0.160873  -0.178701   0.152392   0.001368  -0.010952
  165  H 12  S   -0.109500  -0.118126   0.190252   0.018513  -0.106824
  166  H 12  X   -0.006647  -0.006327   0.010036   0.000959  -0.005231
  167  H 12  Y    0.006625   0.008580   0.000952   0.000760  -0.005745
  168  H 12  Z    0.005263  -0.005150   0.000258   0.008386   0.000223
  169  H 12  S   -0.015697   0.000467   0.014074   0.001380  -0.004104
  170  H 12  X   -0.011584  -0.020764   0.022343   0.003258  -0.021970
  171  H 12  Y    0.011932   0.002996  -0.027694  -0.001199   0.017259
  172  H 12  Z   -0.008473   0.009901  -0.000668  -0.007526  -0.003193
  173  H 13  S   -0.122241   0.178725  -0.114697  -0.237434   0.015742
  174  H 13  S   -0.033636   0.133598  -0.090555  -0.234230  -0.004090
  175  H 13  X    0.004575   0.006521   0.001449   0.000267  -0.004459
  176  H 13  Y   -0.006671   0.004239   0.004504  -0.007375  -0.004309
  177  H 13  Z   -0.005590   0.007679  -0.008791  -0.009729   0.001632
  178  H 13  S    0.004061  -0.009719  -0.005376  -0.008955   0.014934
  179  H 13  X   -0.002174  -0.000442  -0.002633  -0.009308   0.004216
  180  H 13  Y    0.007938   0.006418  -0.015262  -0.016983   0.004182
  181  H 13  Z   -0.003384   0.016684  -0.011525  -0.041001  -0.001029
  182  H 14  S    0.114802  -0.122606  -0.188110   0.143023   0.147276
  183  H 14  S    0.100950  -0.094971  -0.195081   0.170408   0.121753
  184  H 14  X    0.006126   0.003862  -0.002623   0.004123  -0.000887
  185  H 14  Y    0.003933  -0.009449  -0.003693   0.009249   0.003240
  186  H 14  Z   -0.000451   0.001298   0.010680   0.001415  -0.005493
  187  H 14  S   -0.003835  -0.000623  -0.018437   0.005367   0.002556
  188  H 14  X   -0.006968  -0.012756  -0.013583   0.014198   0.008375
  189  H 14  Y    0.008675  -0.003153  -0.033921   0.022069   0.018559
  190  H 14  Z   -0.010574   0.017577   0.018679  -0.023135  -0.006331

                     16         17         18         19         20
                   -0.4595    -0.4547     0.0387     0.0455     0.0481
                     A          A          A          A          A   
    1  C  1  S   -0.000041  -0.000564  -0.014615   0.001909   0.000975
    2  C  1  S   -0.012434   0.025674   0.007180  -0.029679  -0.021362
    3  C  1  S   -0.077018   0.021399   0.619421  -0.114537  -0.110349
    4  C  1  X    0.028220  -0.223338   0.033241  -0.025097  -0.000520
    5  C  1  Y   -0.017082   0.072081   0.014764   0.007646  -0.026608
    6  C  1  Z   -0.146484   0.001499  -0.010279  -0.001236  -0.003155
    7  C  1  X    0.062541  -0.093735   0.256123  -0.540781  -0.240899
    8  C  1  Y    0.023326  -0.029625   0.098453   0.048049  -0.438838
    9  C  1  Z   -0.032099   0.022196  -0.012352   0.095349   0.005114
   10  C  1 XX   -0.005933  -0.009117  -0.002585   0.000865   0.004990
   11  C  1 YY   -0.004863   0.001461   0.001827  -0.000934  -0.000512
   12  C  1 ZZ    0.010795   0.007656   0.000758   0.000069  -0.004478
   13  C  1 XY   -0.007885   0.022642   0.000305   0.005182   0.001084
   14  C  1 XZ   -0.008152  -0.003708   0.001197  -0.002064  -0.003174
   15  C  1 YZ   -0.016057  -0.004812   0.000138  -0.000719  -0.002958
   16  C  1  S    0.015747   0.016842   2.651805  -0.286708  -0.044242
   17  C  1  X    0.003811  -0.007771   0.272581  -1.412147  -0.344048
   18  C  1  Y    0.005616  -0.010548  -0.110915   0.379015  -0.989506
   19  C  1  Z    0.016164   0.007744   0.028774   0.185080  -0.043136
   20  C  1 XX    0.002593   0.007498  -0.025653   0.045849   0.063885
   21  C  1 YY    0.005802   0.014666   0.014736  -0.040103  -0.017350
   22  C  1 ZZ   -0.008395  -0.022165   0.010918  -0.005746  -0.046535
   23  C  1 XY   -0.007293  -0.010257  -0.069350   0.119538   0.077497
   24  C  1 XZ    0.003037  -0.004506   0.019393  -0.034459  -0.007603
   25  C  1 YZ    0.018956  -0.010140   0.031407  -0.013239  -0.038466
   26  H  2  S    0.019150  -0.207430   0.003079  -0.007027   0.001896
   27  H  2  S   -0.013007  -0.217021  -0.647739   0.914856  -0.037120
   28  H  2  X   -0.000834   0.005594  -0.000622   0.001487   0.002584
   29  H  2  Y    0.000540  -0.006602  -0.000096   0.001107  -0.001138
   30  H  2  Z   -0.004700  -0.000149  -0.000191  -0.000799  -0.000473
   31  H  2  S   -0.003111  -0.018102  -1.062251   3.007690  -0.713927
   32  H  2  X    0.000958   0.029154   0.099534  -0.150163   0.037111
   33  H  2  Y   -0.006711  -0.020514  -0.079365   0.119700   0.020236
   34  H  2  Z    0.004792  -0.000309   0.009855  -0.008425  -0.011547
   35  H  3  S    0.134212   0.058320   0.008317  -0.000940  -0.003502
   36  H  3  S    0.179893   0.106222  -0.378680   0.070176   0.360643
   37  H  3  X   -0.000239  -0.006714   0.000615   0.000217   0.001397
   38  H  3  Y   -0.004506   0.000832  -0.000500   0.001266   0.001081
   39  H  3  Z    0.003703   0.003149   0.000159  -0.002760  -0.000227
   40  H  3  S    0.018152   0.017275  -0.487777   0.168809   0.845417
   41  H  3  X   -0.002478   0.002263   0.012380   0.041678  -0.004130
   42  H  3  Y   -0.016373  -0.016016   0.038631  -0.011055   0.010867
   43  H  3  Z    0.033555   0.017371  -0.053591   0.004449   0.066789
   44  H  4  S   -0.118797   0.026901   0.007735  -0.003914  -0.007578
   45  H  4  S   -0.163984   0.067657  -0.619561   0.050201   0.735455
   46  H  4  X    0.004132  -0.006681  -0.000121   0.001349   0.002288
   47  H  4  Y    0.005552   0.001662   0.000842   0.002662  -0.000369
   48  H  4  Z   -0.000295  -0.000679   0.000598   0.001807  -0.001138
   49  H  4  S   -0.017758   0.006230  -0.628271   0.299402   2.239812
   50  H  4  X    0.009381   0.001209   0.077263   0.019814  -0.119228
   51  H  4  Y    0.023081  -0.014370   0.098440  -0.005979  -0.082414
   52  H  4  Z    0.022977  -0.005663   0.062474  -0.007030  -0.100939
   53  C  5  S    0.000293   0.001303  -0.010565   0.002362  -0.000330
   54  C  5  S   -0.002738  -0.027329  -0.000201  -0.002377   0.022237
   55  C  5  S   -0.036586  -0.042592   0.455626  -0.054410   0.107244
   56  C  5  X    0.005164   0.292385  -0.009449   0.015638   0.005349
   57  C  5  Y    0.006608  -0.152438  -0.040731   0.017098  -0.014392
   58  C  5  Z    0.262645   0.018414   0.012076  -0.007172  -0.003413
   59  C  5  X    0.053462   0.182757   0.066770  -0.525528  -0.403833
   60  C  5  Y   -0.023989  -0.055679  -0.146652   0.013614  -0.178285
   61  C  5  Z    0.002433  -0.005403   0.003654   0.079094   0.072730
   62  C  5 XX   -0.005762  -0.006087  -0.002262  -0.004454  -0.003216
   63  C  5 YY   -0.006030  -0.003712   0.001350   0.005067  -0.001810
   64  C  5 ZZ    0.011792   0.009799   0.000912  -0.000613   0.005026
   65  C  5 XY   -0.006941   0.025992   0.000648  -0.007372  -0.003792
   66  C  5 XZ    0.003127  -0.003855  -0.000538   0.001992   0.002120
   67  C  5 YZ   -0.030088  -0.004482  -0.000537   0.002366   0.002922
   68  C  5  S   -0.130208  -0.011886   0.779075   2.976373  -1.205395
   69  C  5  X    0.015831  -0.000999  -0.351424  -2.263799  -0.412433
   70  C  5  Y   -0.031162  -0.025160  -0.258172   1.051870  -1.154219
   71  C  5  Z   -0.029019  -0.000342   0.138004   0.135642   0.483851
   72  C  5 XX    0.023732  -0.031872  -0.005993  -0.057119  -0.073440
   73  C  5 YY    0.009384   0.029665  -0.013259   0.024414   0.107764
   74  C  5 ZZ   -0.033116   0.002207   0.019252   0.032705  -0.034324
   75  C  5 XY    0.034385   0.018319   0.009866  -0.119140  -0.027120
   76  C  5 XZ    0.002490  -0.005097   0.010872   0.021579   0.051609
   77  C  5 YZ    0.018447  -0.001692   0.023289   0.017259  -0.016629
   78  H  6  S    0.246801   0.086554   0.011582  -0.004362   0.001335
   79  H  6  S    0.358475   0.068800  -0.414764  -0.092545  -0.218017
   80  H  6  X   -0.001209   0.007316  -0.000907   0.002527   0.000689
   81  H  6  Y    0.009669  -0.000870  -0.000539  -0.000425   0.001037
   82  H  6  Z   -0.006863  -0.005557  -0.000380   0.001275   0.000607
   83  H  6  S    0.018878   0.000102  -0.557118   0.512803  -1.575998
   84  H  6  X   -0.001228   0.000580   0.000575   0.051177   0.072175
   85  H  6  Y    0.040257   0.009519  -0.061545  -0.014654   0.067664
   86  H  6  Z   -0.059024  -0.008587   0.055351  -0.006438   0.068111
   87  H  7  S   -0.198828   0.027827   0.014294   0.002214   0.002619
   88  H  7  S   -0.275444  -0.010615  -0.484797  -0.119618  -0.353721
   89  H  7  X   -0.001887   0.007467  -0.000729   0.001523   0.000880
   90  H  7  Y   -0.010907  -0.002611   0.000066  -0.001646   0.001237
   91  H  7  Z   -0.000994   0.001941   0.001371  -0.002124  -0.001535
   92  H  7  S   -0.027170  -0.011400  -0.031840   0.875419  -1.535369
   93  H  7  X   -0.002077  -0.001151  -0.008372   0.030696   0.065629
   94  H  7  Y   -0.041385   0.002637  -0.080164  -0.038879   0.007608
[...]
    3             0.063102   0.166701   0.064573   0.294233   0.005386
    4             0.073123   0.076333   0.192303   0.103618   0.115741
    5             0.257387   0.167948   0.173557   0.151606   0.262050
    6             0.018159   0.033951   0.031052   0.121100   0.029739
    7             0.065310  -0.001028   0.050444   0.029131   0.265761
    8             0.257432   0.167947   0.173558   0.151603   0.262041
    9             0.018152   0.033951   0.031054   0.121098   0.029765
   10             0.065341  -0.001028   0.050443   0.029133   0.265704
   11             0.380774   0.393447   0.363737   0.302478   0.329672
   12             0.142168   0.162647   0.124334  -0.002165  -0.008316
   13             0.063079   0.166699   0.064578   0.294229   0.005392
   14             0.073169   0.076334   0.192297   0.103623   0.115719

                     16         17

                  2.000000   2.000000

    1             0.083092   0.239460
    2             0.000347   0.216253
    3             0.104672   0.014883
    4             0.070289   0.001762
    5             0.220724   0.487651
    6             0.321992   0.038513
    7             0.198854   0.001483
    8             0.220738   0.487648
    9             0.321975   0.038502
   10             0.198909   0.001487
   11             0.083081   0.239464
   12             0.000346   0.216253
   13             0.104670   0.014879
   14             0.070310   0.001763

               ----- POPULATIONS IN EACH AO -----
                             MULLIKEN      LOWDIN
              1  C  1  S      2.00793     1.81653
              2  C  1  S      0.65368     0.42190
              3  C  1  S      0.04812     0.18344
              4  C  1  X      0.67860     0.58236
              5  C  1  Y      0.68115     0.58106
              6  C  1  Z      0.68116     0.57894
              7  C  1  X      0.29449     0.27500
              8  C  1  Y      0.18685     0.31041
              9  C  1  Z      0.16454     0.31598
             10  C  1 XX      0.01470     0.11725
             11  C  1 YY      0.00990     0.10362
             12  C  1 ZZ      0.01983     0.11437
             13  C  1 XY      0.00659     0.03884
             14  C  1 XZ      0.01537     0.01211
             15  C  1 YZ      0.00000     0.03195
             16  C  1  S      0.15485     0.05014
             17  C  1  X      0.01242     0.03600
             18  C  1  Y     -0.00574     0.02953
             19  C  1  Z      0.00357     0.02823
             20  C  1 XX     -0.02015     0.07997
             21  C  1 YY     -0.01104     0.04466
             22  C  1 ZZ     -0.00739     0.04987
             23  C  1 XY     -0.00325     0.10580
             24  C  1 XZ     -0.01985     0.05903
             25  C  1 YZ      0.00000     0.06801
             26  H  2  S      0.77647     0.53837
             27  H  2  S      0.34712     0.15846
             28  H  2  X      0.01296     0.02509
             29  H  2  Y      0.01167     0.02300
             30  H  2  Z      0.00524     0.01336
             31  H  2  S      0.01194     0.02032
             32  H  2  X     -0.02124     0.06268
             33  H  2  Y     -0.01307     0.07165
             34  H  2  Z     -0.02052     0.06100
             35  H  3  S      0.77610     0.53912
             36  H  3  S      0.31983     0.15484
             37  H  3  X      0.00451     0.01297
             38  H  3  Y      0.00731     0.01684
             39  H  3  Z      0.01787     0.03202
             40  H  3  S      0.01555     0.02091
             41  H  3  X     -0.00728     0.05242
             42  H  3  Y     -0.02674     0.06284
             43  H  3  Z     -0.02459     0.08463
             44  H  4  S      0.77500     0.53430
             45  H  4  S      0.32431     0.15544
             46  H  4  X      0.00538     0.01418
             47  H  4  Y      0.01343     0.02510
             48  H  4  Z      0.01100     0.02162
             49  H  4  S      0.00503     0.02078
             50  H  4  X     -0.01478     0.05105
             51  H  4  Y     -0.02473     0.07331
             52  H  4  Z     -0.02001     0.06998
             53  C  5  S      2.00850     1.81528
             54  C  5  S      0.64879     0.41610
             55  C  5  S      0.17916     0.17104
             56  C  5  X      0.67293     0.57782
             57  C  5  Y      0.67246     0.57531
             58  C  5  Z      0.68445     0.57788
             59  C  5  X      0.44691     0.24062
             60  C  5  Y      0.28734     0.28103
             61  C  5  Z      0.23840     0.30004
             62  C  5 XX      0.01457     0.12128
             63  C  5 YY      0.01625     0.10375
             64  C  5 ZZ      0.02251     0.10952
             65  C  5 XY      0.00963     0.03867
             66  C  5 XZ      0.02203     0.01745
             67  C  5 YZ      0.00000     0.04406
             68  C  5  S     -0.14249     0.04900
             69  C  5  X      0.02041     0.04708
             70  C  5  Y     -0.01648     0.03437
             71  C  5  Z     -0.00899     0.03104
             72  C  5 XX     -0.00812     0.12331
             73  C  5 YY      0.03034     0.07956
             74  C  5 ZZ      0.05397     0.04867
             75  C  5 XY      0.00860     0.12504
             76  C  5 XZ     -0.01391     0.10461
             77  C  5 YZ      0.00000     0.12715
             78  H  6  S      0.78701     0.53625
             79  H  6  S      0.39695     0.14700
             80  H  6  X      0.00391     0.01291
             81  H  6  Y      0.00750     0.01736
             82  H  6  Z      0.01649     0.03026
             83  H  6  S     -0.00247     0.02119
             84  H  6  X     -0.02320     0.04400
             85  H  6  Y     -0.02669     0.05597
             86  H  6  Z     -0.02073     0.07978
             87  H  7  S      0.78717     0.53306
             88  H  7  S      0.43163     0.14491
             89  H  7  X      0.00429     0.01293
             90  H  7  Y      0.01256     0.02396
             91  H  7  Z      0.01147     0.02250
             92  H  7  S     -0.01255     0.02231
             93  H  7  X     -0.02252     0.05012
             94  H  7  Y     -0.02499     0.06390
             95  H  7  Z     -0.00713     0.07064
             96  C  8  S      2.00850     1.81528
             97  C  8  S      0.64879     0.41610
             98  C  8  S      0.17916     0.17104
             99  C  8  X      0.67293     0.57782
            100  C  8  Y      0.67246     0.57531
            101  C  8  Z      0.68445     0.57788
            102  C  8  X      0.44690     0.24062
            103  C  8  Y      0.28734     0.28103
            104  C  8  Z      0.23840     0.30004
            105  C  8 XX      0.01457     0.12128
            106  C  8 YY      0.01625     0.10375
            107  C  8 ZZ      0.02251     0.10952
            108  C  8 XY      0.00963     0.03867
            109  C  8 XZ      0.02203     0.01745
            110  C  8 YZ      0.00000     0.04406
            111  C  8  S     -0.14249     0.04900
            112  C  8  X      0.02041     0.04708
            113  C  8  Y     -0.01648     0.03437
            114  C  8  Z     -0.00899     0.03104
            115  C  8 XX     -0.00812     0.12331
            116  C  8 YY      0.03034     0.07956
            117  C  8 ZZ      0.05397     0.04867
            118  C  8 XY      0.00860     0.12504
            119  C  8 XZ     -0.01391     0.10461
            120  C  8 YZ      0.00000     0.12715
            121  H  9  S      0.78701     0.53625
            122  H  9  S      0.39695     0.14700
            123  H  9  X      0.00391     0.01291
            124  H  9  Y      0.00750     0.01736
            125  H  9  Z      0.01649     0.03026
            126  H  9  S     -0.00247     0.02119
            127  H  9  X     -0.02320     0.04400
            128  H  9  Y     -0.02669     0.05597
            129  H  9  Z     -0.02073     0.07978
            130  H 10  S      0.78717     0.53306
            131  H 10  S      0.43162     0.14491
            132  H 10  X      0.00429     0.01293
            133  H 10  Y      0.01256     0.02396
            134  H 10  Z      0.01147     0.02250
            135  H 10  S     -0.01255     0.02231
            136  H 10  X     -0.02252     0.05012
            137  H 10  Y     -0.02499     0.06390
            138  H 10  Z     -0.00712     0.07064
            139  C 11  S      2.00793     1.81653
            140  C 11  S      0.65368     0.42190
            141  C 11  S      0.04812     0.18344
            142  C 11  X      0.67860     0.58236
            143  C 11  Y      0.68115     0.58106
            144  C 11  Z      0.68116     0.57894
            145  C 11  X      0.29449     0.27500
            146  C 11  Y      0.18685     0.31041
            147  C 11  Z      0.16454     0.31598
            148  C 11 XX      0.01470     0.11725
            149  C 11 YY      0.00990     0.10362
            150  C 11 ZZ      0.01983     0.11437
            151  C 11 XY      0.00659     0.03884
            152  C 11 XZ      0.01537     0.01211
            153  C 11 YZ      0.00000     0.03195
            154  C 11  S      0.15485     0.05014
            155  C 11  X      0.01242     0.03600
            156  C 11  Y     -0.00574     0.02953
            157  C 11  Z      0.00357     0.02823
            158  C 11 XX     -0.02015     0.07997
            159  C 11 YY     -0.01104     0.04466
            160  C 11 ZZ     -0.00739     0.04987
            161  C 11 XY     -0.00325     0.10580
            162  C 11 XZ     -0.01985     0.05903
            163  C 11 YZ      0.00000     0.06801
            164  H 12  S      0.77647     0.53837
            165  H 12  S      0.34712     0.15846
            166  H 12  X      0.01296     0.02509
            167  H 12  Y      0.01167     0.02300
            168  H 12  Z      0.00524     0.01336
            169  H 12  S      0.01194     0.02032
            170  H 12  X     -0.02124     0.06268
            171  H 12  Y     -0.01307     0.07165
            172  H 12  Z     -0.02052     0.06100
            173  H 13  S      0.77610     0.53912
            174  H 13  S      0.31983     0.15484
            175  H 13  X      0.00451     0.01297
            176  H 13  Y      0.00731     0.01684
            177  H 13  Z      0.01787     0.03202
            178  H 13  S      0.01555     0.02091
            179  H 13  X     -0.00728     0.05242
            180  H 13  Y     -0.02674     0.06284
            181  H 13  Z     -0.02459     0.08463
            182  H 14  S      0.77500     0.53430
            183  H 14  S      0.32431     0.15544
            184  H 14  X      0.00538     0.01418
            185  H 14  Y      0.01343     0.02510
            186  H 14  Z      0.01100     0.02162
            187  H 14  S      0.00503     0.02078
            188  H 14  X     -0.01478     0.05105
            189  H 14  Y     -0.02474     0.07331
            190  H 14  Z     -0.02001     0.06998

          ----- MULLIKEN ATOMIC OVERLAP POPULATIONS -----
          (OFF-DIAGONAL ELEMENTS NEED TO BE MULTIPLIED BY 2)

             1           2           3           4           5

    1    4.1734803
    2    0.3187235   1.1701870
    3    0.3687310  -0.1988427   1.1354324
    4    0.3638486  -0.1917285  -0.1458647   1.1344179
    5    0.5280270   0.1262698  -0.0963415  -0.0703601   4.7595294
    6   -0.1025121  -0.0680015   0.0750637  -0.0527844   0.0867853
    7   -0.0317329  -0.0451142  -0.0828015   0.0791253   0.2634051
    8   -0.0526952  -0.0027831   0.0111339  -0.0248812   0.3955604
    9    0.0189481   0.0032892  -0.0149493   0.0170616   0.0961089
   10   -0.0424939   0.0056766   0.0121833  -0.0369243  -0.1725097
   11    0.0132930  -0.0062186   0.0130523   0.0038809  -0.0526956
   12   -0.0062187  -0.0003697  -0.0019353   0.0013924  -0.0027830
   13    0.0130522  -0.0019353   0.0064160   0.0012806   0.0111333
   14    0.0038811   0.0013924   0.0012806  -0.0038451  -0.0248815

             6           7           8           9          10

    6    1.3100839
    7   -0.1689997   1.3538213
    8    0.0961069  -0.1725087   4.7595284
    9   -0.1340989   0.0727819   0.0867842   1.3100871
   10    0.0727822  -0.0264958   0.2634057  -0.1689991   1.3538187
   11    0.0189485  -0.0424937   0.5280275  -0.1025130  -0.0317328
   12    0.0032891   0.0056765   0.1262695  -0.0680012  -0.0451143
   13   -0.0149491   0.0121833  -0.0963388   0.0750633  -0.0828019
   14    0.0170617  -0.0369240  -0.0703619  -0.0527841   0.0791256

            11          12          13          14

   11    4.1734807
   12    0.3187231   1.1701870
   13    0.3687309  -0.1988419   1.1354301
   14    0.3638492  -0.1917289  -0.1458649   1.1344191

          TOTAL MULLIKEN AND LOWDIN ATOMIC POPULATIONS
       ATOM         MULL.POP.    CHARGE          LOW.POP.     CHARGE
    1 C             5.566332    0.433668         6.034996   -0.034996
    2 H             1.110545   -0.110545         0.973928    0.026072
    3 H             1.082558   -0.082558         0.976585    0.023415
    4 H             1.074619   -0.074619         0.965770    0.034230
    5 C             5.847248    0.152752         6.159676   -0.159676
    6 H             1.138776   -0.138776         0.944714    0.055286
    7 H             1.179923   -0.179923         0.944331    0.055669
    8 C             5.847247    0.152753         6.159676   -0.159676
    9 H             1.138779   -0.138779         0.944714    0.055286
   10 H             1.179920   -0.179920         0.944331    0.055669
   11 C             5.566332    0.433668         6.034996   -0.034996
   12 H             1.110544   -0.110544         0.973928    0.026072
   13 H             1.082558   -0.082558         0.976585    0.023415
   14 H             1.074619   -0.074619         0.965770    0.034230

          MULLIKEN SPHERICAL HARMONIC POPULATIONS
       ATOM           S       P       D      F      G      H      I    TOTAL
    1 C             2.86    2.70    0.00   0.00   0.00   0.00   0.00    5.57
    2 H             1.14   -0.02    0.00   0.00   0.00   0.00   0.00    1.11
    3 H             1.11   -0.03    0.00   0.00   0.00   0.00   0.00    1.08
    4 H             1.10   -0.03    0.00   0.00   0.00   0.00   0.00    1.07
    5 C             2.69    3.00    0.16   0.00   0.00   0.00   0.00    5.85
    6 H             1.18   -0.04    0.00   0.00   0.00   0.00   0.00    1.14
    7 H             1.21   -0.03    0.00   0.00   0.00   0.00   0.00    1.18
    8 C             2.69    3.00    0.16   0.00   0.00   0.00   0.00    5.85
    9 H             1.18   -0.04    0.00   0.00   0.00   0.00   0.00    1.14
   10 H             1.21   -0.03    0.00   0.00   0.00   0.00   0.00    1.18
   11 C             2.86    2.70    0.00   0.00   0.00   0.00   0.00    5.57
   12 H             1.14   -0.02    0.00   0.00   0.00   0.00   0.00    1.11
   13 H             1.11   -0.03    0.00   0.00   0.00   0.00   0.00    1.08
   14 H             1.10   -0.03    0.00   0.00   0.00   0.00   0.00    1.07

          -------------------------------
          BOND ORDER AND VALENCE ANALYSIS     BOND ORDER THRESHOLD=0.050
          -------------------------------

                   BOND                       BOND                       BOND
  ATOM PAIR DIST  ORDER      ATOM PAIR DIST  ORDER      ATOM PAIR DIST  ORDER
    1   2  1.086  0.898        1   3  1.086  0.931        1   4  1.087  0.932
    1   5  1.529  1.241        1   6  2.159 -0.051        1   8  2.561 -0.051
    2   3  1.755 -0.079        2   4  1.754 -0.080        2   5  2.173  0.088
    3   4  1.754 -0.074        5   6  1.087  0.789        5   7  1.088  0.860
    5   8  1.537  1.248        5   9  2.163  0.064        5  10  2.155 -0.060
    5  11  2.561 -0.051        6   7  1.737 -0.055        6   8  2.163  0.064
    7   8  2.155 -0.060        8   9  1.087  0.789        8  10  1.088  0.860
    8  11  1.529  1.241        8  12  2.173  0.088        9  10  1.737 -0.055
    9  11  2.159 -0.051       11  12  1.086  0.898       11  13  1.086  0.931
   11  14  1.087  0.932       12  13  1.755 -0.079       12  14  1.754 -0.080
   13  14  1.754 -0.074

                       TOTAL       BONDED        FREE
      ATOM            VALENCE     VALENCE     VALENCE
    1 C                 3.967       3.967      -0.000
    2 H                 0.769       0.769       0.000
    3 H                 0.786       0.786      -0.000
    4 H                 0.764       0.764      -0.000
    5 C                 4.177       4.177       0.000
    6 H                 0.704       0.704      -0.000
    7 H                 0.740       0.740      -0.000
    8 C                 4.177       4.177      -0.000
    9 H                 0.704       0.704       0.000
   10 H                 0.740       0.740       0.000
   11 C                 3.967       3.967       0.000
   12 H                 0.769       0.769      -0.000
   13 H                 0.786       0.786      -0.000
   14 H                 0.764       0.764       0.000

          ---------------------
          ELECTROSTATIC MOMENTS
          ---------------------

 POINT   1           X           Y           Z (BOHR)    CHARGE
                -0.000000    0.000000   -0.000000        0.00 (A.U.)
         DX          DY          DZ         /D/  (DEBYE)
     0.000000    0.000000    0.029264    0.029264
 ...... END OF PROPERTY EVALUATION ......
 CPU     0: STEP CPU TIME=     0.05 TOTAL CPU TIME=       34.4 (    0.6 MIN)
 TOTAL WALL CLOCK TIME=       36.9 SECONDS, CPU UTILIZATION IS  93.23%



 ---------------------------     ------------------------------
 DISTRIBUTED DATA MP2 ENERGY     PROGRAM WRITTEN BY G. FLETCHER
 ---------------------------     ------------------------------

 DDI: Creating Array [0] - 36100 x 91 = 3285100 words.
    THIS CALCULATION IS RUNNING WITH MWORDS=    5, MEMDDI=     100, AND P=    8
 MEMORY USAGE PER CPU IS 8*(MWORDS + MEMDDI/P)/1024 =    0.1 GBYTES.

 MINIMAL REQUIREMENT FOR THIS RUN IS MWORDS=    1, MEMDDI=       3.
 FOR P=    8, THE MEMORY USAGE PER CPU(CORE) WOULD BE    0.0 GBYTES.


      DIRECT 4-INDEX TRANSFORMATION 
      SCHWARZ INEQUALITY TEST SKIPPED     412323 INTEGRAL BLOCKS

 RESULTS OF MOLLER-PLESSET 2ND ORDER CORRECTION ARE
                     E(SCF)=      -157.3122652742
                       E(2)=        -0.6097825841
                     E(MP2)=      -157.9220478583
 SPIN-COMPONENT-SCALED MP2 RESULTS ARE
                      E(2S)=        -0.4746427029
                      E(2T)=        -0.1351398812
                     E(2ST)=        -0.6146178706 = 6/5 * E(2S) + 1/3 * E(2T)
                    SCS-MP2=      -157.9268831448
 ..... DONE WITH MP2 ENERGY .....
 CPU     0: STEP CPU TIME=     9.78 TOTAL CPU TIME=       44.2 (    0.7 MIN)
 TOTAL WALL CLOCK TIME=       47.8 SECONDS, CPU UTILIZATION IS  92.47%
               580000  WORDS OF DYNAMIC MEMORY USED
 EXECUTION OF GAMESS TERMINATED NORMALLY Fri Feb  5 10:02:33 2016
 DDI: 3729224 bytes (3.6 MB / 0 MWords) used by master data server.

 ----------------------------------------
 CPU timing information for all processes
 ========================================
 0: 44.76 + 0.129 = 44.206
 1: 43.264 + 0.80 = 43.345
 2: 42.685 + 0.74 = 42.760
 3: 42.926 + 0.89 = 43.16
 4: 42.596 + 0.100 = 42.697
 5: 42.622 + 0.70 = 42.693
 6: 41.373 + 0.92 = 41.466
 7: 42.132 + 0.85 = 42.218
 ----------------------------------------
 ddikick.x: exited gracefully.
unset echo
----- accounting info -----
Files used on the master node wr28 were:
-rw-r--r-- 1 kkirsc3m fb03-hpc  562667 Feb  5 10:02 /tmp/4611.wr0.wr.inf.h-brs.de/06.dat
-rw-r--r-- 1 kkirsc3m fb03-hpc    1284 Feb  5 10:01 /tmp/4611.wr0.wr.inf.h-brs.de/06.F05
-rw-r--r-- 1 kkirsc3m fb03-hpc 4155440 Feb  5 10:02 /tmp/4611.wr0.wr.inf.h-brs.de/06.F10
ls: No match.
ls: No match.
ls: No match.
Fri Feb  5 10:02:36 CET 2016
0.310u 0.072s 0:51.24 0.7%	0+0k 16+192io 0pf+0w
