----- GAMESS execution script 'rungms' -----
This job is running on host wr30
under operating system Linux at Fri Feb 5 10:02:17 CET 2016
PBS has assigned the following compute nodes to this run:
wr30
Available scratch disk space (Kbyte units) at beginning of the job is
Filesystem     1K-blocks    Used Available Use% Mounted on
/dev/sda2      379797844 8359896 352138672   3% /
GAMESS temporary binary files will be written to /tmp/4612.wr0.wr.inf.h-brs.de
GAMESS supplementary output files will be written to /tmp/4612.wr0.wr.inf.h-brs.de
Copying input file 07.inp to your run's scratch directory...
cp 07.inp /tmp/4612.wr0.wr.inf.h-brs.de/07.F05
unset echo
/usr/local/hpc5/gamess-gnu/ddikick.x /usr/local/hpc5/gamess-gnu/gamess.00.x 07 -ddi 1 8 wr30:cpus=8:netext=.myri -scr /tmp/4612.wr0.wr.inf.h-brs.de

 Distributed Data Interface kickoff program.
 Initiating 8 compute processes on 1 nodes to run the following command:
 /usr/local/hpc5/gamess-gnu/gamess.00.x 07 

          ******************************************************
          *         GAMESS VERSION =  1 MAY 2013 (R1)          *
          *             FROM IOWA STATE UNIVERSITY             *
          * M.W.SCHMIDT, K.K.BALDRIDGE, J.A.BOATZ, S.T.ELBERT, *
          *   M.S.GORDON, J.H.JENSEN, S.KOSEKI, N.MATSUNAGA,   *
          *          K.A.NGUYEN, S.J.SU, T.L.WINDUS,           *
          *       TOGETHER WITH M.DUPUIS, J.A.MONTGOMERY       *
          *         J.COMPUT.CHEM.  14, 1347-1363(1993)        *
          **************** 64 BIT LINUX VERSION ****************

  SINCE 1993, STUDENTS AND POSTDOCS WORKING AT IOWA STATE UNIVERSITY
  AND ALSO IN THEIR VARIOUS JOBS AFTER LEAVING ISU HAVE MADE IMPORTANT
  CONTRIBUTIONS TO THE CODE:
     IVANA ADAMOVIC, CHRISTINE AIKENS, YURI ALEXEEV, POOJA ARORA,
     ANDREY ASADCHEV, ROB BELL, PRADIPTA BANDYOPADHYAY, JONATHAN BENTZ,
     BRETT BODE, GALINA CHABAN, WEI CHEN, CHEOL HO CHOI, PAUL DAY,
     ALBERT DEFUSCO, TIM DUDLEY, DMITRI FEDOROV, GRAHAM FLETCHER,
     MARK FREITAG, KURT GLAESEMANN, DAN KEMP, GRANT MERRILL,
     NORIYUKI MINEZAWA, JONATHAN MULLIN, TAKESHI NAGATA,
     SEAN NEDD, HEATHER NETZLOFF, BOSILJKA NJEGIC, RYAN OLSON, MIKE PAK,
     JIM SHOEMAKER, LYUDMILA SLIPCHENKO, SAROM SOK, JIE SONG,
     TETSUYA TAKETSUGU, SIMON WEBB, SOOHAENG YOO, FEDERICO ZAHARIEV

  ADDITIONAL CODE HAS BEEN PROVIDED BY COLLABORATORS IN OTHER GROUPS:
     IOWA STATE UNIVERSITY:
          JOE IVANIC, LAIMUTIS BYTAUTAS, KLAUS RUEDENBERG
     UNIVERSITY OF TOKYO: KIMIHIKO HIRAO, TAKAHITO NAKAJIMA,
          TAKAO TSUNEDA, MUNEAKI KAMIYA, SUSUMU YANAGISAWA,
          KIYOSHI YAGI, MAHITO CHIBA, SEIKEN TOKURA, NAOAKI KAWAKAMI
     UNIVERSITY OF AARHUS: FRANK JENSEN
     UNIVERSITY OF IOWA: VISVALDAS KAIRYS, HUI LI
     NATIONAL INST. OF STANDARDS AND TECHNOLOGY: WALT STEVENS, DAVID GARMER
     UNIVERSITY OF PISA: BENEDETTA MENNUCCI, JACOPO TOMASI
     UNIVERSITY OF MEMPHIS: HENRY KURTZ, PRAKASHAN KORAMBATH
     UNIVERSITY OF ALBERTA: TOBY ZENG, MARIUSZ KLOBUKOWSKI
     UNIVERSITY OF NEW ENGLAND: MARK SPACKMAN
     MIE UNIVERSITY: HIROAKI UMEDA
     MICHIGAN STATE UNIVERSITY:
          KAROL KOWALSKI, MARTA WLOCH, JEFFREY GOUR, JESSE LUTZ,
          WEI LI, PIOTR PIECUCH
     UNIVERSITY OF SILESIA: MONIKA MUSIAL, STANISLAW KUCHARSKI
     FACULTES UNIVERSITAIRES NOTRE-DAME DE LA PAIX:
          OLIVIER QUINET, BENOIT CHAMPAGNE
     UNIVERSITY OF CALIFORNIA - SANTA BARBARA: BERNARD KIRTMAN
     INSTITUTE FOR MOLECULAR SCIENCE:
          KAZUYA ISHIMURA, MICHIO KATOUDA, AND SHIGERU NAGASE
     UNIVERSITY OF NOTRE DAME: DAN CHIPMAN
     KYUSHU UNIVERSITY:
          HARUYUKI NAKANO,
          FENG LONG GU, JACEK KORCHOWIEC, MARCIN MAKOWSKI, AND YURIKO AOKI,
          HIROTOSHI MORI AND EISAKU MIYOSHI
     PENNSYLVANIA STATE UNIVERSITY:
          TZVETELIN IORDANOV, CHET SWALINA, JONATHAN SKONE,
          SHARON HAMMES-SCHIFFER
     WASEDA UNIVERSITY:
          MASATO KOBAYASHI, TOMOKO AKAMA, TSUGUKI TOUMA,
          TAKESHI YOSHIKAWA, YASUHIRO IKABATA, HIROMI NAKAI
     NANJING UNIVERSITY: SHUHUA LI
     UNIVERSITY OF NEBRASKA:
          PEIFENG SU, DEJUN SI, NANDUN THELLAMUREGE, YALI WANG, HUI LI
     UNIVERSITY OF ZURICH:
          ROBERTO PEVERATI, KIM BALDRIDGE
     N. COPERNICUS UNIVERSITY AND JACKSON STATE UNIVERSITY:
          MARIA BARYSZ


 PARALLEL VERSION RUNNING ON     8 PROCESSORS IN     1 NODES.

 EXECUTION OF GAMESS BEGUN Fri Feb  5 10:02:17 2016

            ECHO OF THE FIRST FEW INPUT CARDS -
 INPUT CARD> $CONTRL  ICHARG=0 MPLEVL=2 ISPHER=1                                            
 INPUT CARD>          RUNTYP=ENERGY SCFTYP=RHF EXETYP=RUN                                   
 INPUT CARD>          MULT=1 UNITS=ANGS MAXIT=200                                           
 INPUT CARD>          COORD=PRINAXIS                       $END                             
 INPUT CARD> $SCF     DIRSCF=.T. CONV=1.0E-08  FDIFF=.F.   $END                             
 INPUT CARD> $SYSTEM  TIMLIM=50000 MWORDS=5 MEMDDI=100     $END                             
 INPUT CARD> $BASIS   GBASIS=ACCD                          $END                             
 INPUT CARD> $GUESS   GUESS=HUCKEL                         $END                             
 INPUT CARD> $DATA                                                                          
 INPUT CARD>Full optimization                                                               
 INPUT CARD> C1                                                                             
 INPUT CARD> C           6.0   1.9543566150   0.1319191862  -0.0006410112                   
 INPUT CARD> H           1.0   2.7380092590  -0.6194680674  -0.0001381977                   
 INPUT CARD> H           1.0   2.0955440085   0.7563258275  -0.8784437038                   
 INPUT CARD> H           1.0   2.0964925858   0.7584705413   0.8754847744                   
 INPUT CARD> C           6.0   0.5683720024  -0.5118322274   0.0008474898                   
 INPUT CARD> H           1.0   0.4702237128  -1.1565763047   0.8718639187                   
 INPUT CARD> H           1.0   0.4692936771  -1.1582274449  -0.8688438979                   
 INPUT CARD> C           6.0  -0.5683720043   0.5118327489   0.0004337358                   
 INPUT CARD> H           1.0  -0.4702223004   1.1572840417   0.8709259231                   
 INPUT CARD> H           1.0  -0.4692950957   1.1575214321  -0.8697826407                   
 INPUT CARD> C           6.0  -1.9543566137  -0.1319196647  -0.0005314265                   
 INPUT CARD> H           1.0  -2.7380092661   0.6194677396  -0.0006392960                   
 INPUT CARD> H           1.0  -2.0955438758  -0.7570402091  -0.8778259146                   
 INPUT CARD> H           1.0  -2.0964926985  -0.7577580679   0.8761037152                   
 INPUT CARD> $END                                                                           
    5000000 WORDS OF MEMORY AVAILABLE

     BASIS OPTIONS
     -------------
     GBASIS=ACCD         IGAUSS=       0      POLAR=NONE    
     NDFUNC=       0     NFFUNC=       0     DIFFSP=       F
     NPFUNC=       0      DIFFS=       F     BASNAM=        


     RUN TITLE
     ---------
 Full optimization                                                               

 THE POINT GROUP OF THE MOLECULE IS C1      
 THE ORDER OF THE PRINCIPAL AXIS IS     0

 THE MOMENTS OF INERTIA ARE (AMU-ANGSTROM**2)
 IXX=    21.345   IYY=   139.286   IZZ=   148.324

 ATOM      ATOMIC                      COORDINATES (BOHR)
           CHARGE         X                   Y                   Z
 C           6.0     3.6931878099        0.2494496893       -0.0011077965
 H           1.0     5.1741373613       -1.1704032012       -0.0007315682
 H           1.0     3.9599439165        1.4300901978       -1.6594362144
 H           1.0     3.9617340278        1.4328010239        1.6550093821
 C           6.0     1.0741087484       -0.9671772492        0.0012106033
 H           1.0     0.8886864089       -2.1862412610        1.6466993374
 H           1.0     0.8869312792       -2.1880294837       -1.6427624557
 C           6.0    -1.0741087537        0.9671772543        0.0012105622
 H           1.0    -0.8886860491        2.1862450419        1.6466961893
 H           1.0    -0.8869316562        2.1880257751       -1.6427655682
 C           6.0    -3.6931878059       -0.2494496964       -0.0011077897
 H           1.0    -5.1741373737        1.1704031767       -0.0007376820
 H           1.0    -3.9599413386       -1.4300962199       -1.6594323994
 H           1.0    -3.9617365618       -1.4327950256        1.6550131803

          INTERNUCLEAR DISTANCES (ANGS.)
          ------------------------------

                1 C          2 H          3 H          4 H          5 C     

   1 C       0.0000000    1.0856770 *  1.0864415 *  1.0864463 *  1.5281922 *
   2 H       1.0856770 *  0.0000000    1.7541354 *  1.7541306 *  2.1723057 *
   3 H       1.0864415 *  1.7541354 *  0.0000000    1.7539300 *  2.1710901 *
   4 H       1.0864463 *  1.7541306 *  1.7539300 *  0.0000000    2.1711315 *
   5 C       1.5281922 *  2.1723057 *  2.1710901 *  2.1711315 *  0.0000000  
   6 H       2.1503804 *  2.4883176 *  3.0601368    2.5124028 *  1.0881166 *
   7 H       2.1502713 *  2.4883693 *  2.5120304 *  3.0600964    1.0881206 *
   8 C       2.5511753 *  3.4945671    2.8157860 *  2.8156789 *  1.5297311 *
   9 H       2.7730101 *  3.7693966    3.1311688    2.5975177 *  2.1498055 *
  10 H       2.7715257 *  3.7683915    2.5960417 *  3.1286525    2.1497654 *
  11 C       3.9176077    4.7176266    4.2380898    4.2390539    2.5511752 *
  12 H       4.7176266    5.6144226    4.9145201    4.9152135    3.4945671  
  13 H       4.2380887    4.9145191    4.4559505    4.7899938    2.8157844 *
  14 H       4.2390550    4.9152145    4.7899957    4.4587078    2.8156805 *

                6 H          7 H          8 C          9 H         10 H     

   1 C       2.1503804 *  2.1502713 *  2.5511753 *  2.7730101 *  2.7715257 *
   2 H       2.4883176 *  2.4883693 *  3.4945671    3.7693966    3.7683915  
   3 H       3.0601368    2.5120304 *  2.8157860 *  3.1311688    2.5960417 *
   4 H       2.5124028 *  3.0600964    2.8156789 *  2.5975177 *  3.1286525  
   5 C       1.0881166 *  1.0881206 *  1.5297311 *  2.1498055 *  2.1497654 *
   6 H       0.0000000    1.7407088 *  2.1498047 *  2.4976768 *  3.0448443  
   7 H       1.7407088 *  0.0000000    2.1497662 *  3.0448453    2.4987282 *
   8 C       2.1498047 *  2.1497662 *  0.0000000    1.0881164 *  1.0881207 *
   9 H       2.4976768 *  3.0448453    1.0881164 *  0.0000000    1.7407088 *
  10 H       3.0448443    2.4987282 *  1.0881207 *  1.7407088 *  0.0000000  
  11 C       2.7730100 *  2.7715257 *  1.5281922 *  2.1503811 *  2.1502706 *
  12 H       3.7693969    3.7683911    2.1723058 *  2.4883187 *  2.4883681 *
  13 H       3.1311670    2.5960400 *  2.1710902 *  3.0601373    2.5120303 *
  14 H       2.5975194 *  3.1286543    2.1711314 *  2.5124029 *  3.0600959  

               11 C         12 H         13 H         14 H     

   1 C       3.9176077    4.7176266    4.2380887    4.2390550  
   2 H       4.7176266    5.6144226    4.9145191    4.9152145  
   3 H       4.2380898    4.9145201    4.4559505    4.7899957  
   4 H       4.2390539    4.9152135    4.7899938    4.4587078  
   5 C       2.5511752 *  3.4945671    2.8157844 *  2.8156805 *
   6 H       2.7730100 *  3.7693969    3.1311670    2.5975194 *
   7 H       2.7715257 *  3.7683911    2.5960400 *  3.1286543  
   8 C       1.5281922 *  2.1723058 *  2.1710902 *  2.1711314 *
   9 H       2.1503811 *  2.4883187 *  3.0601373    2.5124029 *
  10 H       2.1502706 *  2.4883681 *  2.5120303 *  3.0600959  
  11 C       0.0000000    1.0856770 *  1.0864415 *  1.0864463 *
  12 H       1.0856770 *  0.0000000    1.7541358 *  1.7541302 *
  13 H       1.0864415 *  1.7541358 *  0.0000000    1.7539300 *
  14 H       1.0864463 *  1.7541302 *  1.7539300 *  0.0000000  

  * ... LESS THAN  3.000


     ATOMIC BASIS SET
     ----------------
 THE CONTRACTED PRIMITIVE FUNCTIONS HAVE BEEN UNNORMALIZED
 THE CONTRACTED BASIS FUNCTIONS ARE NOW NORMALIZED TO UNITY

  SHELL TYPE  PRIMITIVE        EXPONENT          CONTRACTION COEFFICIENT(S)

 C         

      1   S       1          6665.0000000    0.000691583963
      1   S       2          1000.0000000    0.005325796153
      1   S       3           228.0000000    0.027060721042
      1   S       4            64.7100000    0.101656846141
      1   S       5            21.0600000    0.274574823617
      1   S       6             7.4950000    0.448294318924
      1   S       7             2.7970000    0.284902610715
      1   S       8             0.5215000    0.015194859206

      2   S       9          6665.0000000   -0.000293269653
      2   S      10          1000.0000000   -0.002318035474
      2   S      11           228.0000000   -0.011499786039
      2   S      12            64.7100000   -0.046826727010
      2   S      13            21.0600000   -0.128466168750
      2   S      14             7.4950000   -0.301266272463
      2   S      15             2.7970000   -0.255630702330
      2   S      16             0.5215000    1.093793361012

      3   S      17             0.1596000    1.000000000000

      4   P      18             9.4390000    0.056979251590
      4   P      19             2.0020000    0.313207211501
      4   P      20             0.5456000    0.760376741738

      5   P      21             0.1517000    1.000000000000

      6   D      22             0.5500000    1.000000000000

      7   S      23             0.0469000    1.000000000000

      8   P      24             0.0404100    1.000000000000

      9   D      25             0.1510000    1.000000000000

 H         

     10   S      26            13.0100000    0.033498726390
     10   S      27             1.9620000    0.234800801174
     10   S      28             0.4446000    0.813682957883

     11   S      29             0.1220000    1.000000000000

     12   P      30             0.7270000    1.000000000000

     13   S      31             0.0297400    1.000000000000

     14   P      32             0.1410000    1.000000000000

 H         

     15   S      33            13.0100000    0.033498726390
     15   S      34             1.9620000    0.234800801174
     15   S      35             0.4446000    0.813682957883

     16   S      36             0.1220000    1.000000000000

     17   P      37             0.7270000    1.000000000000

     18   S      38             0.0297400    1.000000000000

     19   P      39             0.1410000    1.000000000000

 H         

     20   S      40            13.0100000    0.033498726390
     20   S      41             1.9620000    0.234800801174
     20   S      42             0.4446000    0.813682957883

     21   S      43             0.1220000    1.000000000000

     22   P      44             0.7270000    1.000000000000

     23   S      45             0.0297400    1.000000000000

     24   P      46             0.1410000    1.000000000000

 C         

     25   S      47          6665.0000000    0.000691583963
     25   S      48          1000.0000000    0.005325796153
     25   S      49           228.0000000    0.027060721042
     25   S      50            64.7100000    0.101656846141
     25   S      51            21.0600000    0.274574823617
     25   S      52             7.4950000    0.448294318924
     25   S      53             2.7970000    0.284902610715
     25   S      54             0.5215000    0.015194859206

     26   S      55          6665.0000000   -0.000293269653
     26   S      56          1000.0000000   -0.002318035474
     26   S      57           228.0000000   -0.011499786039
     26   S      58            64.7100000   -0.046826727010
     26   S      59            21.0600000   -0.128466168750
     26   S      60             7.4950000   -0.301266272463
     26   S      61             2.7970000   -0.255630702330
     26   S      62             0.5215000    1.093793361012

     27   S      63             0.1596000    1.000000000000

     28   P      64             9.4390000    0.056979251590
     28   P      65             2.0020000    0.313207211501
     28   P      66             0.5456000    0.760376741738

     29   P      67             0.1517000    1.000000000000

     30   D      68             0.5500000    1.000000000000

     31   S      69             0.0469000    1.000000000000

     32   P      70             0.0404100    1.000000000000

     33   D      71             0.1510000    1.000000000000

 H         

     34   S      72            13.0100000    0.033498726390
     34   S      73             1.9620000    0.234800801174
     34   S      74             0.4446000    0.813682957883

     35   S      75             0.1220000    1.000000000000

     36   P      76             0.7270000    1.000000000000

     37   S      77             0.0297400    1.000000000000

     38   P      78             0.1410000    1.000000000000

 H         

     39   S      79            13.0100000    0.033498726390
     39   S      80             1.9620000    0.234800801174
     39   S      81             0.4446000    0.813682957883

     40   S      82             0.1220000    1.000000000000

     41   P      83             0.7270000    1.000000000000

     42   S      84             0.0297400    1.000000000000

     43   P      85             0.1410000    1.000000000000

 C         

     44   S      86          6665.0000000    0.000691583963
     44   S      87          1000.0000000    0.005325796153
     44   S      88           228.0000000    0.027060721042
     44   S      89            64.7100000    0.101656846141
     44   S      90            21.0600000    0.274574823617
     44   S      91             7.4950000    0.448294318924
     44   S      92             2.7970000    0.284902610715
     44   S      93             0.5215000    0.015194859206

     45   S      94          6665.0000000   -0.000293269653
     45   S      95          1000.0000000   -0.002318035474
     45   S      96           228.0000000   -0.011499786039
     45   S      97            64.7100000   -0.046826727010
     45   S      98            21.0600000   -0.128466168750
     45   S      99             7.4950000   -0.301266272463
     45   S     100             2.7970000   -0.255630702330
     45   S     101             0.5215000    1.093793361012

     46   S     102             0.1596000    1.000000000000

     47   P     103             9.4390000    0.056979251590
     47   P     104             2.0020000    0.313207211501
     47   P     105             0.5456000    0.760376741738

     48   P     106             0.1517000    1.000000000000

     49   D     107             0.5500000    1.000000000000

     50   S     108             0.0469000    1.000000000000

     51   P     109             0.0404100    1.000000000000

     52   D     110             0.1510000    1.000000000000

 H         

     53   S     111            13.0100000    0.033498726390
     53   S     112             1.9620000    0.234800801174
     53   S     113             0.4446000    0.813682957883

     54   S     114             0.1220000    1.000000000000

     55   P     115             0.7270000    1.000000000000

     56   S     116             0.0297400    1.000000000000

     57   P     117             0.1410000    1.000000000000

 H         

     58   S     118            13.0100000    0.033498726390
     58   S     119             1.9620000    0.234800801174
     58   S     120             0.4446000    0.813682957883

     59   S     121             0.1220000    1.000000000000

     60   P     122             0.7270000    1.000000000000

     61   S     123             0.0297400    1.000000000000

     62   P     124             0.1410000    1.000000000000

 C         

     63   S     125          6665.0000000    0.000691583963
     63   S     126          1000.0000000    0.005325796153
     63   S     127           228.0000000    0.027060721042
     63   S     128            64.7100000    0.101656846141
     63   S     129            21.0600000    0.274574823617
     63   S     130             7.4950000    0.448294318924
     63   S     131             2.7970000    0.284902610715
     63   S     132             0.5215000    0.015194859206

     64   S     133          6665.0000000   -0.000293269653
     64   S     134          1000.0000000   -0.002318035474
     64   S     135           228.0000000   -0.011499786039
     64   S     136            64.7100000   -0.046826727010
     64   S     137            21.0600000   -0.128466168750
     64   S     138             7.4950000   -0.301266272463
     64   S     139             2.7970000   -0.255630702330
     64   S     140             0.5215000    1.093793361012

     65   S     141             0.1596000    1.000000000000

     66   P     142             9.4390000    0.056979251590
     66   P     143             2.0020000    0.313207211501
     66   P     144             0.5456000    0.760376741738

     67   P     145             0.1517000    1.000000000000

     68   D     146             0.5500000    1.000000000000

     69   S     147             0.0469000    1.000000000000

     70   P     148             0.0404100    1.000000000000

     71   D     149             0.1510000    1.000000000000

 H         

     72   S     150            13.0100000    0.033498726390
     72   S     151             1.9620000    0.234800801174
     72   S     152             0.4446000    0.813682957883

     73   S     153             0.1220000    1.000000000000

     74   P     154             0.7270000    1.000000000000

     75   S     155             0.0297400    1.000000000000

     76   P     156             0.1410000    1.000000000000

 H         

     77   S     157            13.0100000    0.033498726390
     77   S     158             1.9620000    0.234800801174
     77   S     159             0.4446000    0.813682957883

     78   S     160             0.1220000    1.000000000000

     79   P     161             0.7270000    1.000000000000

     80   S     162             0.0297400    1.000000000000

     81   P     163             0.1410000    1.000000000000

 H         

     82   S     164            13.0100000    0.033498726390
     82   S     165             1.9620000    0.234800801174
     82   S     166             0.4446000    0.813682957883

     83   S     167             0.1220000    1.000000000000

     84   P     168             0.7270000    1.000000000000

     85   S     169             0.0297400    1.000000000000

     86   P     170             0.1410000    1.000000000000

 TOTAL NUMBER OF BASIS SET SHELLS             =   86
 NUMBER OF CARTESIAN GAUSSIAN BASIS FUNCTIONS =  190
 NOTE: THIS RUN WILL RESTRICT THE MO VARIATION SPACE TO SPHERICAL HARMONICS.
 THE NUMBER OF ORBITALS KEPT IN THE VARIATIONAL SPACE WILL BE PRINTED LATER.
 NUMBER OF ELECTRONS                          =   34
 CHARGE OF MOLECULE                           =    0
 SPIN MULTIPLICITY                            =    1
 NUMBER OF OCCUPIED ORBITALS (ALPHA)          =   17
 NUMBER OF OCCUPIED ORBITALS (BETA )          =   17
 TOTAL NUMBER OF ATOMS                        =   14
 THE NUCLEAR REPULSION ENERGY IS      130.8417689220

     $CONTRL OPTIONS
     ---------------
 SCFTYP=RHF          RUNTYP=ENERGY       EXETYP=RUN     
 MPLEVL=       2     CITYP =NONE         CCTYP =NONE         VBTYP =NONE    
 DFTTYP=NONE         TDDFT =NONE    
 MULT  =       1     ICHARG=       0     NZVAR =       0     COORD =PRINAXIS
 PP    =NONE         RELWFN=NONE         LOCAL =NONE         NUMGRD=       F
 ISPHER=       1     NOSYM =       0     MAXIT =     200     UNITS =ANGS    
 PLTORB=       F     MOLPLT=       F     AIMPAC=       F     FRIEND=        
 NPRINT=       7     IREST =       0     GEOM  =INPUT   
 NORMF =       0     NORMP =       0     ITOL  =      20     ICUT  =       9
 INTTYP=BEST         GRDTYP=BEST         QMTTOL= 1.0E-06

     $SYSTEM OPTIONS
     ---------------
  REPLICATED MEMORY=     5000000 WORDS (ON EVERY NODE).
 DISTRIBUTED MEMDDI=         100 MILLION WORDS IN AGGREGATE,
 MEMDDI DISTRIBUTED OVER   8 PROCESSORS IS    12500000 WORDS/PROCESSOR.
 TOTAL MEMORY REQUESTED ON EACH PROCESSOR=    17500000 WORDS.
 TIMLIM=       50000.00 MINUTES, OR      34.7 DAYS.
 PARALL= T  BALTYP=  DLB     KDIAG=    0  COREFL= F
 MXSEQ2=     300 MXSEQ3=     150

          ----------------
          PROPERTIES INPUT
          ----------------

     MOMENTS            FIELD           POTENTIAL          DENSITY
 IEMOM =       1   IEFLD =       0   IEPOT =       0   IEDEN =       0
 WHERE =COMASS     WHERE =NUCLEI     WHERE =NUCLEI     WHERE =NUCLEI  
 OUTPUT=BOTH       OUTPUT=BOTH       OUTPUT=BOTH       OUTPUT=BOTH    
 IEMINT=       0   IEFINT=       0                     IEDINT=       0
                                                       MORB  =       0
          EXTRAPOLATION IN EFFECT
          SOSCF IN EFFECT
 ORBITAL PRINTING OPTION: NPREO=     1   190     2     1

     -------------------------------
     INTEGRAL TRANSFORMATION OPTIONS
     -------------------------------
     NWORD  =            0
     CUTOFF = 1.0E-09     MPTRAN =       0
     DIRTRF =       T     AOINTS =DUP     

          ----------------------
          INTEGRAL INPUT OPTIONS
          ----------------------
 NOPK  =       1 NORDER=       0 SCHWRZ=       T

          -----------------------
          MP2 CONTROL INFORMATION
          -----------------------
          NACORE =        4  NBCORE =        4
          LMOMP2 =        F  AOINTS = DUP     
          METHOD =        2  NWORD  =               0
          MP2PRP =        F  OSPT   = NONE    
          CUTOFF = 1.00E-09  CPHFBS = BASISAO 
          CODE   = DDI     

          NUMBER OF CORE -A-  ORBITALS =     4
          NUMBER OF CORE -B-  ORBITALS =     4
          NUMBER OF OCC. -A-  ORBITALS =    17
          NUMBER OF OCC. -B-  ORBITALS =    17
          NUMBER OF MOLECULAR ORBITALS =   190
          NUMBER OF   BASIS  FUNCTIONS =   190


     ------------------------------------------
     THE POINT GROUP IS C1 , NAXIS= 0, ORDER= 1
     ------------------------------------------

 -- VARIATIONAL SPACE WILL BE RESTRICTED TO PURE SPHERICAL HARMONICS ONLY --
 AFTER EXCLUDING CONTAMINANT COMBINATIONS FROM THE CARTESIAN GAUSSIAN BASIS
 SET, THE NUMBER OF SPHERICAL HARMONICS KEPT IN THE VARIATION SPACE IS  182

     DIMENSIONS OF THE SYMMETRY SUBSPACES ARE
 A   =  182

 ..... DONE SETTING UP THE RUN .....
 CPU     0: STEP CPU TIME=     0.03 TOTAL CPU TIME=        0.0 (    0.0 MIN)
 TOTAL WALL CLOCK TIME=        0.0 SECONDS, CPU UTILIZATION IS 100.00%

          ********************
          1 ELECTRON INTEGRALS
          ********************
 ...... END OF ONE-ELECTRON INTEGRALS ......
 CPU     0: STEP CPU TIME=     0.00 TOTAL CPU TIME=        0.0 (    0.0 MIN)
 TOTAL WALL CLOCK TIME=        0.0 SECONDS, CPU UTILIZATION IS  60.00%

          -------------
          GUESS OPTIONS
          -------------
          GUESS =HUCKEL            NORB  =       0          NORDER=       0
          MIX   =       F          PRTMO =       F          PUNMO =       F
          TOLZ  = 1.0E-08          TOLE  = 1.0E-05
          SYMDEN=       F          PURIFY=       F

 INITIAL GUESS ORBITALS GENERATED BY HUCKEL   ROUTINE.
 HUCKEL GUESS REQUIRES    272744 WORDS.

 STATISTICS FOR GENERATION OF SYMMETRY ORBITAL -Q- MATRIX
 NUMBER OF CARTESIAN ATOMIC ORBITALS=        190
 NUMBER OF SPHERICAL CONTAMINANTS DROPPED=     8
 NUMBER OF LINEARLY DEPENDENT MOS DROPPED=     0
 TOTAL NUMBER OF MOS IN VARIATION SPACE=     182

 SYMMETRIES FOR INITIAL GUESS ORBITALS FOLLOW.   BOTH SET(S).
    17 ORBITALS ARE OCCUPIED (    4 CORE ORBITALS).
     5=A        6=A        7=A        8=A        9=A       10=A       11=A   
    12=A       13=A       14=A       15=A       16=A       17=A       18=A   
    19=A       20=A       21=A       22=A       23=A       24=A       25=A   
    26=A       27=A   
 ...... END OF INITIAL ORBITAL SELECTION ......
 CPU     0: STEP CPU TIME=     0.06 TOTAL CPU TIME=        0.1 (    0.0 MIN)
 TOTAL WALL CLOCK TIME=        0.1 SECONDS, CPU UTILIZATION IS  64.29%

                    ----------------------
                    AO INTEGRAL TECHNOLOGY
                    ----------------------
     S,P,L SHELL ROTATED AXIS INTEGRALS, REPROGRAMMED BY
        KAZUYA ISHIMURA (IMS) AND JOSE SIERRA (SYNSTAR).
     S,P,D,L SHELL ROTATED AXIS INTEGRALS PROGRAMMED BY
        KAZUYA ISHIMURA (INSTITUTE FOR MOLECULAR SCIENCE).
     S,P,D,F,G SHELL TO TOTAL QUARTET ANGULAR MOMENTUM SUM 5,
        ERIC PROGRAM BY GRAHAM FLETCHER (ELORET AND NASA ADVANCED
        SUPERCOMPUTING DIVISION, AMES RESEARCH CENTER).
     S,P,D,F,G,L SHELL GENERAL RYS QUADRATURE PROGRAMMED BY
        MICHEL DUPUIS (PACIFIC NORTHWEST NATIONAL LABORATORY).

          --------------------
          2 ELECTRON INTEGRALS
          --------------------

 DIRECT SCF METHOD SKIPS INTEGRAL STORAGE ON DISK.
 DIRECT TRANSFORMATION SKIPS AO INTEGRAL STORAGE ON DISK.
  ...... END OF TWO-ELECTRON INTEGRALS .....
 CPU     0: STEP CPU TIME=     0.02 TOTAL CPU TIME=        0.1 (    0.0 MIN)
 TOTAL WALL CLOCK TIME=        0.2 SECONDS, CPU UTILIZATION IS  68.75%

          --------------------------
                 RHF SCF CALCULATION
          --------------------------

     NUCLEAR ENERGY =       130.8417689220
     MAXIT =  200     NPUNCH=    2
     EXTRAP=T  DAMP=F  SHIFT=F  RSTRCT=F  DIIS=F  DEM=F  SOSCF=T
     DENSITY MATRIX CONV=  2.00E-08
     SOSCF WILL OPTIMIZE    2805 ORBITAL ROTATIONS, SOGTOL=   0.250
     MEMORY REQUIRED FOR RHF ITERS=    319458 WORDS.

 DIRECT SCF CALCULATION, SCHWRZ=T   FDIFF=F,  DIRTHR=  0.00E+00 NITDIR=10
 SCHWARZ INEQUALITY OVERHEAD:     18136 INTEGRALS, T=        0.00

                                                                                   NONZERO     BLOCKS
 ITER EX DEM     TOTAL ENERGY        E CHANGE  DENSITY CHANGE     ORB. GRAD      INTEGRALS    SKIPPED
   1  0  0     -156.9214653230  -156.9214653230   0.711278671   0.000000000      156293113     237415
          ---------------START SECOND ORDER SCF---------------
   2  1  0     -157.2885261921    -0.3670608691   0.082145461   0.021298776      156353467     246610
   3  2  0     -157.3110051425    -0.0224789504   0.023034677   0.008919352      156360113     246496
   4  3  0     -157.3148696339    -0.0038644914   0.006609839   0.001398080      156362668     246235
   5  4  0     -157.3150081816    -0.0001385476   0.001622752   0.000434433      156361225     246422
   6  5  0     -157.3150161980    -0.0000080164   0.000633048   0.000134232      156360457     246510
   7  6  0     -157.3150170744    -0.0000008764   0.000110302   0.000018158      156360493     246508
   8  7  0     -157.3150171113    -0.0000000369   0.000033753   0.000004539      156360449     246506
   9  8  0     -157.3150171132    -0.0000000019   0.000013549   0.000001183      156360449     246506
  10  9  0     -157.3150171133    -0.0000000001   0.000002920   0.000000312      156360449     246506
  11 10  0     -157.3150171133    -0.0000000000   0.000000669   0.000000063      156360449     246506
  12 11  0     -157.3150171133     0.0000000000   0.000000192   0.000000015      156360449     246506
  13 12  0     -157.3150171133    -0.0000000000   0.000000000   0.000000003      156360449     246506

          -----------------
          DENSITY CONVERGED
          -----------------
     TIME TO FORM FOCK OPERATORS=      25.5 SECONDS (       2.0 SEC/ITER)
     FOCK TIME ON FIRST ITERATION=       2.5, LAST ITERATION=       1.8
     TIME TO SOLVE SCF EQUATIONS=       0.1 SECONDS (       0.0 SEC/ITER)

 FINAL RHF ENERGY IS     -157.3150171133 AFTER  13 ITERATIONS

          ------------
          EIGENVECTORS
          ------------

                      1          2          3          4          5
                  -11.2185   -11.2179   -11.2133   -11.2133    -1.0707
                     A          A          A          A          A   
    1  C  1  S    0.038916  -0.046532   0.708874  -0.708329  -0.010842
    2  C  1  S   -0.000327  -0.000444   0.005326  -0.005508   0.155735
    3  C  1  S    0.010231  -0.001227  -0.026161   0.028774   0.012848
    4  C  1  X   -0.000084   0.000225   0.000096  -0.000067  -0.048980
    5  C  1  Y   -0.000079   0.000079   0.000050  -0.000041  -0.016294
    6  C  1  Z    0.000000  -0.000000  -0.000000   0.000000   0.000037
    7  C  1  X   -0.012693   0.004413   0.006522  -0.007093   0.013685
    8  C  1  Y   -0.004466   0.000299   0.002846  -0.003789  -0.033861
    9  C  1  Z    0.000010  -0.000001  -0.000004   0.000006   0.000029
   10  C  1 XX    0.000064  -0.000004  -0.000150   0.000111   0.008121
   11  C  1 YY   -0.000017   0.000022   0.000057  -0.000021  -0.003192
   12  C  1 ZZ   -0.000047  -0.000018   0.000093  -0.000090  -0.004930
   13  C  1 XY   -0.000068   0.000102  -0.000139   0.000177   0.008351
   14  C  1 XZ    0.000000   0.000000   0.000000  -0.000000  -0.000015
   15  C  1 YZ    0.000000  -0.000000   0.000000  -0.000000  -0.000007
   16  C  1  S    0.000438   0.007961  -0.006958   0.014470   0.049248
   17  C  1  X   -0.000997  -0.001660   0.001079  -0.003220  -0.023288
   18  C  1  Y   -0.001029  -0.000425   0.000514  -0.000602  -0.008827
   19  C  1  Z    0.000001   0.000002  -0.000000   0.000004   0.000017
   20  C  1 XX    0.003084  -0.001056  -0.001072   0.001187  -0.018993
   21  C  1 YY   -0.001528   0.000536   0.000112  -0.000463   0.018384
   22  C  1 ZZ   -0.001556   0.000521   0.000960  -0.000724   0.000609
   23  C  1 XY    0.001202  -0.000737  -0.001010   0.001567   0.012657
   24  C  1 XZ   -0.000007  -0.000000   0.000003   0.000002   0.000022
   25  C  1 YZ    0.000001   0.000001   0.000002  -0.000001  -0.000037
   26  H  2  S   -0.000104   0.000013   0.000336  -0.000254   0.059475
   27  H  2  S    0.002800  -0.004010   0.003218  -0.004175   0.008178
   28  H  2  X    0.000090  -0.000027   0.000103  -0.000089  -0.007020
   29  H  2  Y   -0.000048   0.000047  -0.000188   0.000197   0.006921
   30  H  2  Z    0.000000   0.000000   0.000000  -0.000000  -0.000003
   31  H  2  S    0.000443   0.000635   0.000167   0.001087   0.007050
   32  H  2  X   -0.000511   0.000957  -0.000974   0.001467   0.006907
   33  H  2  Y    0.000212  -0.000571   0.000398  -0.000832   0.013005
   34  H  2  Z    0.000001   0.000000   0.000000  -0.000001  -0.000024
   35  H  3  S   -0.000110   0.000018   0.000302  -0.000325   0.064749
   36  H  3  S    0.004528  -0.000686   0.004010  -0.004284  -0.000321
   37  H  3  X    0.000108   0.000029  -0.000039   0.000042  -0.001783
   38  H  3  Y    0.000039  -0.000004   0.000110  -0.000072  -0.005242
   39  H  3  Z   -0.000023   0.000005  -0.000158   0.000164   0.007478
   40  H  3  S    0.000567   0.000041   0.000145  -0.000089   0.006407
   41  H  3  X    0.000102  -0.000127  -0.000482   0.000456   0.003098
   42  H  3  Y   -0.000517  -0.000198  -0.000825   0.000895  -0.000371
   43  H  3  Z    0.000964  -0.000054   0.001035  -0.001006   0.000781
   44  H  4  S   -0.000110   0.000018   0.000302  -0.000324   0.064751
   45  H  4  S    0.004531  -0.000686   0.003996  -0.004292  -0.000337
   46  H  4  X    0.000108   0.000029  -0.000039   0.000042  -0.001791
   47  H  4  Y    0.000039  -0.000004   0.000111  -0.000072  -0.005255
   48  H  4  Z    0.000022  -0.000005   0.000158  -0.000164  -0.007467
   49  H  4  S    0.000567   0.000041   0.000145  -0.000090   0.006399
   50  H  4  X    0.000103  -0.000126  -0.000481   0.000455   0.003081
   51  H  4  Y   -0.000521  -0.000199  -0.000824   0.000899  -0.000355
   52  H  4  Z   -0.000965   0.000054  -0.001028   0.001007  -0.000772
   53  C  5  S    0.708893  -0.708748  -0.039623   0.046490  -0.019196
   54  C  5  S    0.005627  -0.005902  -0.000665   0.000131   0.236137
   55  C  5  S   -0.026958   0.036803   0.007115  -0.002121   0.113009
   56  C  5  X   -0.000044  -0.000165   0.000221  -0.000040  -0.013855
   57  C  5  Y    0.000156   0.000110  -0.000003  -0.000100   0.042105
   58  C  5  Z   -0.000000   0.000000   0.000000   0.000000  -0.000032
   59  C  5  X   -0.012474  -0.010577   0.007429  -0.014408   0.067196
   60  C  5  Y   -0.006991   0.014060   0.004630   0.000929   0.138518
   61  C  5  Z    0.000008  -0.000003  -0.000009   0.000005  -0.000045
   62  C  5 XX   -0.000186   0.000176  -0.000056   0.000016   0.010355
   63  C  5 YY    0.000010  -0.000025   0.000021   0.000036  -0.000601
   64  C  5 ZZ    0.000176  -0.000151   0.000035  -0.000052  -0.009754
   65  C  5 XY    0.000046  -0.000106   0.000013  -0.000091  -0.005470
   66  C  5 XZ    0.000000  -0.000000  -0.000000  -0.000000  -0.000010
   67  C  5 YZ    0.000000   0.000000   0.000000  -0.000000  -0.000005
   68  C  5  S   -0.005180  -0.005016   0.001491  -0.003064  -0.059368
   69  C  5  X   -0.002027  -0.002471   0.000946  -0.005039  -0.009881
   70  C  5  Y   -0.000187  -0.001143   0.000619  -0.000569  -0.007288
   71  C  5  Z    0.000002   0.000004  -0.000002   0.000001   0.000013
   72  C  5 XX   -0.000216   0.002507   0.002473  -0.001360  -0.018242
   73  C  5 YY   -0.001743   0.000959  -0.000878   0.001303   0.049911
   74  C  5 ZZ    0.001958  -0.003466  -0.001595   0.000057  -0.031669
   75  C  5 XY   -0.002977  -0.003258   0.001464  -0.003116   0.016673
   76  C  5 XZ    0.000005  -0.000003  -0.000000   0.000007  -0.000074
   77  C  5 YZ    0.000003  -0.000002   0.000001   0.000003  -0.000065
   78  H  6  S    0.000095  -0.000289  -0.000088   0.000084   0.101497
   79  H  6  S    0.002287   0.001394   0.004352  -0.000664   0.059201
   80  H  6  X    0.000048   0.000086   0.000015   0.000121   0.000624
   81  H  6  Y   -0.000086   0.000047  -0.000035  -0.000017   0.008445
   82  H  6  Z    0.000152  -0.000136   0.000012   0.000040  -0.011247
   83  H  6  S    0.000035  -0.000685   0.000602  -0.000428  -0.007346
   84  H  6  X    0.000435   0.000295   0.000075   0.000313  -0.001416
   85  H  6  Y    0.000309  -0.000315   0.000729   0.000026   0.013218
   86  H  6  Z   -0.001064   0.000324  -0.000738   0.000201  -0.005553
   87  H  7  S    0.000095  -0.000289  -0.000089   0.000083   0.101519
   88  H  7  S    0.002286   0.001400   0.004342  -0.000682   0.059305
   89  H  7  X    0.000048   0.000086   0.000016   0.000122   0.000636
   90  H  7  Y   -0.000086   0.000047  -0.000035  -0.000017   0.008458
   91  H  7  Z   -0.000152   0.000136  -0.000012  -0.000040   0.011238
   92  H  7  S    0.000036  -0.000681   0.000602  -0.000427  -0.007368
   93  H  7  X    0.000438   0.000293   0.000078   0.000315  -0.001455
   94  H  7  Y    0.000310  -0.000315   0.000729   0.000023   0.013233
   95  H  7  Z    0.001062  -0.000322   0.000735  -0.000206   0.005568
   96  C  8  S    0.708892   0.708749  -0.039609  -0.046502  -0.019196
   97  C  8  S    0.005627   0.005902  -0.000665  -0.000131   0.236137
   98  C  8  S   -0.026958  -0.036803   0.007114   0.002123   0.113009
   99  C  8  X    0.000044  -0.000165  -0.000221  -0.000040   0.013855
  100  C  8  Y   -0.000156   0.000110   0.000003  -0.000100  -0.042105
  101  C  8  Z   -0.000000  -0.000000   0.000000  -0.000000  -0.000032
  102  C  8  X    0.012474  -0.010577  -0.007424  -0.014411  -0.067196
  103  C  8  Y    0.006991   0.014060  -0.004630   0.000927  -0.138518
  104  C  8  Z    0.000008   0.000003  -0.000009  -0.000005  -0.000045
  105  C  8 XX   -0.000186  -0.000176  -0.000056  -0.000016   0.010355
  106  C  8 YY    0.000010   0.000025   0.000021  -0.000036  -0.000601
  107  C  8 ZZ    0.000176   0.000151   0.000035   0.000052  -0.009754
  108  C  8 XY    0.000046   0.000106   0.000012   0.000091  -0.005470
  109  C  8 XZ   -0.000000  -0.000000   0.000000  -0.000000   0.000010
  110  C  8 YZ   -0.000000   0.000000  -0.000000  -0.000000   0.000005
  111  C  8  S   -0.005180   0.005016   0.001490   0.003065  -0.059368
  112  C  8  X    0.002027  -0.002471  -0.000944  -0.005039   0.009881
  113  C  8  Y    0.000187  -0.001143  -0.000619  -0.000569   0.007288
  114  C  8  Z    0.000002  -0.000004  -0.000002  -0.000001   0.000013
  115  C  8 XX   -0.000216  -0.002507   0.002473   0.001361  -0.018242
  116  C  8 YY   -0.001743  -0.000959  -0.000877  -0.001304   0.049911
  117  C  8 ZZ    0.001958   0.003466  -0.001595  -0.000057  -0.031669
  118  C  8 XY   -0.002977   0.003258   0.001463   0.003117   0.016673
  119  C  8 XZ   -0.000005  -0.000003   0.000000   0.000007   0.000074
  120  C  8 YZ   -0.000003  -0.000002  -0.000001   0.000003   0.000064
  121  H  9  S    0.000095   0.000289  -0.000088  -0.000084   0.101497
  122  H  9  S    0.002287  -0.001394   0.004352   0.000666   0.059201
  123  H  9  X   -0.000048   0.000086  -0.000015   0.000121  -0.000624
  124  H  9  Y    0.000086   0.000047   0.000035  -0.000017  -0.008445
  125  H  9  Z    0.000152   0.000136   0.000012  -0.000040  -0.011247
  126  H  9  S    0.000035   0.000685   0.000601   0.000428  -0.007346
  127  H  9  X   -0.000435   0.000295  -0.000075   0.000313   0.001416
  128  H  9  Y   -0.000309  -0.000315  -0.000729   0.000026  -0.013218
  129  H  9  Z   -0.001064  -0.000324  -0.000738  -0.000202  -0.005553
  130  H 10  S    0.000095   0.000289  -0.000089  -0.000083   0.101519
  131  H 10  S    0.002286  -0.001400   0.004341   0.000683   0.059305
  132  H 10  X   -0.000048   0.000086  -0.000016   0.000121  -0.000636
  133  H 10  Y    0.000086   0.000047   0.000035  -0.000017  -0.008458
  134  H 10  Z   -0.000152  -0.000136  -0.000012   0.000040   0.011238
  135  H 10  S    0.000036   0.000681   0.000602   0.000427  -0.007368
  136  H 10  X   -0.000438   0.000293  -0.000078   0.000315   0.001455
  137  H 10  Y   -0.000310  -0.000315  -0.000729   0.000022  -0.013233
  138  H 10  Z    0.001062   0.000322   0.000735   0.000206   0.005568
  139  C 11  S    0.038916   0.046532   0.708656   0.708547  -0.010842
  140  C 11  S   -0.000327   0.000444   0.005325   0.005509   0.155735
  141  C 11  S    0.010231   0.001227  -0.026152  -0.028782   0.012848
  142  C 11  X    0.000084   0.000225  -0.000096  -0.000067   0.048980
  143  C 11  Y    0.000079   0.000079  -0.000050  -0.000041   0.016294
  144  C 11  Z    0.000000   0.000000  -0.000000  -0.000000   0.000037
  145  C 11  X    0.012693   0.004413  -0.006520  -0.007095  -0.013685
  146  C 11  Y    0.004466   0.000299  -0.002845  -0.003790   0.033861
  147  C 11  Z    0.000010   0.000001  -0.000004  -0.000006   0.000029
  148  C 11 XX    0.000064   0.000004  -0.000150  -0.000111   0.008121
  149  C 11 YY   -0.000017  -0.000022   0.000057   0.000021  -0.003192
  150  C 11 ZZ   -0.000047   0.000018   0.000093   0.000090  -0.004930
  151  C 11 XY   -0.000068  -0.000102  -0.000139  -0.000177   0.008351
  152  C 11 XZ   -0.000000   0.000000  -0.000000  -0.000000   0.000015
  153  C 11 YZ   -0.000000  -0.000000  -0.000000  -0.000000   0.000007
  154  C 11  S    0.000438  -0.007961  -0.006953  -0.014472   0.049248
  155  C 11  X    0.000997  -0.001660  -0.001078  -0.003221   0.023288
  156  C 11  Y    0.001029  -0.000425  -0.000514  -0.000603   0.008827
  157  C 11  Z    0.000001  -0.000002  -0.000000  -0.000004   0.000017
  158  C 11 XX    0.003084   0.001056  -0.001071  -0.001187  -0.018993
  159  C 11 YY   -0.001528  -0.000536   0.000112   0.000463   0.018384
  160  C 11 ZZ   -0.001556  -0.000521   0.000959   0.000724   0.000609
  161  C 11 XY    0.001202   0.000737  -0.001009  -0.001568   0.012657
  162  C 11 XZ    0.000007  -0.000000  -0.000003   0.000002  -0.000022
  163  C 11 YZ   -0.000001   0.000001  -0.000002  -0.000001   0.000037
  164  H 12  S   -0.000104  -0.000013   0.000336   0.000254   0.059475
  165  H 12  S    0.002800   0.004010   0.003217   0.004176   0.008178
  166  H 12  X   -0.000090  -0.000027  -0.000103  -0.000089   0.007020
  167  H 12  Y    0.000048   0.000047   0.000188   0.000197  -0.006921
  168  H 12  Z    0.000000  -0.000000   0.000000   0.000000  -0.000003
  169  H 12  S    0.000443  -0.000634   0.000167  -0.001087   0.007050
  170  H 12  X    0.000511   0.000957   0.000974   0.001467  -0.006907
  171  H 12  Y   -0.000212  -0.000571  -0.000397  -0.000832  -0.013005
  172  H 12  Z    0.000001  -0.000000   0.000000   0.000001  -0.000024
  173  H 13  S   -0.000110  -0.000018   0.000302   0.000325   0.064749
  174  H 13  S    0.004528   0.000686   0.004008   0.004285  -0.000321
  175  H 13  X   -0.000108   0.000029   0.000039   0.000042   0.001783
  176  H 13  Y   -0.000039  -0.000004  -0.000110  -0.000072   0.005242
  177  H 13  Z   -0.000023  -0.000005  -0.000158  -0.000164   0.007478
  178  H 13  S    0.000567  -0.000041   0.000145   0.000089   0.006407
  179  H 13  X   -0.000102  -0.000127   0.000482   0.000456  -0.003098
  180  H 13  Y    0.000517  -0.000198   0.000825   0.000895   0.000371
  181  H 13  Z    0.000964   0.000054   0.001034   0.001006   0.000781
  182  H 14  S   -0.000110  -0.000018   0.000302   0.000324   0.064751
  183  H 14  S    0.004531   0.000686   0.003994   0.004294  -0.000337
  184  H 14  X   -0.000108   0.000029   0.000039   0.000042   0.001791
  185  H 14  Y   -0.000039  -0.000004  -0.000111  -0.000072   0.005254
  186  H 14  Z    0.000022   0.000005   0.000158   0.000164  -0.007467
  187  H 14  S    0.000567  -0.000041   0.000145   0.000090   0.006399
  188  H 14  X   -0.000103  -0.000126   0.000481   0.000455  -0.003081
  189  H 14  Y    0.000521  -0.000199   0.000824   0.000900   0.000355
  190  H 14  Z   -0.000965  -0.000054  -0.001028  -0.001007  -0.000772

                      6          7          8          9         10
                   -0.9820    -0.8631    -0.7899    -0.6379    -0.5842
                     A          A          A          A          A   
    1  C  1  S    0.014677  -0.009994   0.002898   0.000004  -0.000962
    2  C  1  S   -0.244084   0.220061  -0.103446   0.000038  -0.006943
    3  C  1  S    0.002980   0.029350  -0.079265   0.000062   0.036268
    4  C  1  X    0.024815   0.074271  -0.073926   0.000236   0.064624
    5  C  1  Y    0.016368   0.022376  -0.076318   0.000002  -0.241576
    6  C  1  Z   -0.000024  -0.000066   0.000086   0.163274  -0.000065
    7  C  1  X   -0.028579   0.044143  -0.022799   0.000170  -0.007309
    8  C  1  Y   -0.013224   0.048756  -0.042703   0.000098  -0.036348
    9  C  1  Z    0.000074  -0.000049  -0.000063   0.028708  -0.000057
   10  C  1 XX   -0.004757  -0.006290   0.007349  -0.000009   0.006957
   11  C  1 YY    0.001031   0.002605   0.000134   0.000017   0.006561
   12  C  1 ZZ    0.003726   0.003684  -0.007484  -0.000008  -0.013518
   13  C  1 XY   -0.005570  -0.006239   0.009900  -0.000010  -0.004277
   14  C  1 XZ    0.000009   0.000011  -0.000016  -0.006101  -0.000007
   15  C  1 YZ    0.000005   0.000005  -0.000011   0.005771  -0.000030
   16  C  1  S   -0.040263   0.033204  -0.046149  -0.000102  -0.059786
   17  C  1  X    0.012919  -0.015637   0.015477   0.000028   0.002618
   18  C  1  Y    0.005423  -0.002915  -0.004960   0.000068   0.014937
   19  C  1  Z   -0.000023   0.000015   0.000020   0.001747  -0.000046
   20  C  1 XX   -0.004905   0.006009   0.010445  -0.000055  -0.008919
   21  C  1 YY    0.007024  -0.007182  -0.013489  -0.000030  -0.023548
   22  C  1 ZZ   -0.002119   0.001173   0.003043   0.000085   0.032467
   23  C  1 XY    0.011141  -0.011027  -0.004189  -0.000001   0.009904
   24  C  1 XZ   -0.000010   0.000013   0.000092   0.001930  -0.000019
   25  C  1 YZ   -0.000016   0.000026   0.000023  -0.026118   0.000057
   26  H  2  S   -0.115893   0.140232  -0.056008   0.000187   0.187934
   27  H  2  S    0.010358   0.041878  -0.070446   0.000145   0.138769
   28  H  2  X    0.011740  -0.011179   0.003658  -0.000006  -0.009257
   29  H  2  Y   -0.010962   0.012235  -0.006538   0.000011   0.003564
   30  H  2  Z    0.000002  -0.000004   0.000003   0.004357  -0.000004
   31  H  2  S   -0.002038   0.003739  -0.012943   0.000025   0.003407
   32  H  2  X   -0.002147  -0.015228   0.021984  -0.000007  -0.003732
   33  H  2  Y    0.000394   0.003979  -0.016581   0.000022   0.017242
   34  H  2  Z   -0.000001   0.000007  -0.000019  -0.008493   0.000001
   35  H  3  S   -0.111790   0.129486  -0.095194  -0.111878  -0.117910
   36  H  3  S   -0.023973   0.023067   0.014359  -0.085103  -0.106485
   37  H  3  X    0.001881  -0.000174   0.000213   0.000493   0.002843
   38  H  3  Y    0.009066  -0.009288   0.004536   0.005409  -0.000733
   39  H  3  Z   -0.012654   0.013315  -0.008269  -0.003653  -0.008493
   40  H  3  S    0.001239   0.004659   0.003705   0.000407  -0.004247
   41  H  3  X   -0.001416  -0.000282  -0.002882  -0.000571   0.008505
   42  H  3  Y    0.003043  -0.004555  -0.000186   0.001306   0.021204
   43  H  3  Z   -0.009758   0.005691   0.008150  -0.017246  -0.008450
   44  H  4  S   -0.111787   0.129475  -0.095205   0.111819  -0.118242
   45  H  4  S   -0.024082   0.022984   0.014403   0.084725  -0.106397
   46  H  4  X    0.001894  -0.000190   0.000217  -0.000494   0.002859
   47  H  4  Y    0.009087  -0.009309   0.004550  -0.005422  -0.000705
   48  H  4  Z    0.012638  -0.013300   0.008263  -0.003640   0.008500
   49  H  4  S    0.001267   0.004650   0.003663  -0.000496  -0.004182
   50  H  4  X   -0.001388  -0.000285  -0.002969   0.000581   0.008480
   51  H  4  Y    0.003084  -0.004552  -0.000189  -0.001255   0.021182
   52  H  4  Z    0.009789  -0.005661  -0.008160  -0.017175   0.008349
   53  C  5  S    0.008842   0.005005  -0.005186  -0.000002   0.000006
   54  C  5  S   -0.134538  -0.150774   0.209461  -0.000013   0.002162
   55  C  5  S   -0.016494  -0.004919   0.034997  -0.000068  -0.079405
   56  C  5  X   -0.093845   0.108197   0.007232   0.000140   0.137542
   57  C  5  Y   -0.002490  -0.000734  -0.139325  -0.000029  -0.175152
   58  C  5  Z    0.000043  -0.000094   0.000038   0.252195  -0.000089
   59  C  5  X   -0.190040   0.101543   0.035775   0.000157   0.058018
   60  C  5  Y    0.017550  -0.017605  -0.038679   0.000093  -0.111825
   61  C  5  Z    0.000080  -0.000071   0.000034   0.101750   0.000027
   62  C  5 XX   -0.006762   0.007991  -0.008101   0.000001  -0.002121
   63  C  5 YY    0.003507  -0.006201  -0.004339  -0.000019  -0.006849
   64  C  5 ZZ    0.003254  -0.001790   0.012441   0.000018   0.008970
   65  C  5 XY   -0.015842   0.016222   0.006467  -0.000004   0.004493
   66  C  5 XZ    0.000018  -0.000014   0.000011  -0.003965   0.000002
   67  C  5 YZ    0.000008  -0.000007   0.000005  -0.007875   0.000011
   68  C  5  S    0.054080  -0.029842  -0.003040   0.000147   0.061140
   69  C  5  X   -0.007586   0.005032   0.013979   0.000099   0.048189
   70  C  5  Y    0.008507  -0.003001   0.000174   0.000053   0.011988
   71  C  5  Z    0.000019  -0.000008  -0.000031   0.004713  -0.000006
   72  C  5 XX   -0.035400   0.019165   0.037853   0.000044   0.053550
   73  C  5 YY    0.013649  -0.027056   0.000640   0.000015  -0.041159
   74  C  5 ZZ    0.021751   0.007891  -0.038493  -0.000059  -0.012391
   75  C  5 XY   -0.039919   0.014802   0.009718   0.000025  -0.021850
   76  C  5 XZ    0.000030   0.000007   0.000058   0.014027  -0.000075
   77  C  5 YZ    0.000018   0.000019   0.000025   0.046808  -0.000069
   78  H  6  S   -0.061328  -0.084303   0.173558   0.171181   0.078231
   79  H  6  S   -0.029104  -0.019646   0.094473   0.058649   0.067630
   80  H  6  X   -0.001354   0.000214   0.001878   0.001503   0.004067
   81  H  6  Y   -0.005156  -0.006263   0.008262   0.007825  -0.000463
   82  H  6  Z    0.006096   0.008151  -0.014711  -0.004949  -0.006173
   83  H  6  S    0.004702  -0.005248   0.003151  -0.003454   0.004325
   84  H  6  X    0.007917  -0.008130   0.005745  -0.004512  -0.015892
   85  H  6  Y   -0.003909  -0.005063   0.020532  -0.018956   0.010692
   86  H  6  Z    0.002867  -0.000167  -0.008534  -0.003816  -0.014945
   87  H  7  S   -0.061309  -0.084258   0.173595  -0.171042   0.078378
   88  H  7  S   -0.029163  -0.019700   0.094338  -0.058387   0.068174
   89  H  7  X   -0.001360   0.000206   0.001901  -0.001506   0.004074
   90  H  7  Y   -0.005163  -0.006268   0.008284  -0.007835  -0.000452
   91  H  7  Z   -0.006089  -0.008142   0.014703  -0.004925   0.006173
   92  H  7  S    0.004710  -0.005283   0.003132   0.003511   0.004338
   93  H  7  X    0.007901  -0.008111   0.005810   0.004480  -0.015947
   94  H  7  Y   -0.003942  -0.005070   0.020542   0.019010   0.010756
   95  H  7  Z   -0.002890   0.000173   0.008476  -0.003751   0.015099
   96  C  8  S   -0.008842   0.005005   0.005186  -0.000002   0.000006
   97  C  8  S    0.134538  -0.150774  -0.209461  -0.000013   0.002162
   98  C  8  S    0.016494  -0.004919  -0.034997  -0.000068  -0.079405
   99  C  8  X   -0.093845  -0.108197   0.007232  -0.000140  -0.137542
  100  C  8  Y   -0.002490   0.000734  -0.139325   0.000030   0.175152
  101  C  8  Z   -0.000043  -0.000094  -0.000038   0.252195  -0.000088
  102  C  8  X   -0.190040  -0.101543   0.035775  -0.000156  -0.058018
  103  C  8  Y    0.017550   0.017605  -0.038679  -0.000094   0.111825
  104  C  8  Z   -0.000080  -0.000072  -0.000034   0.101750   0.000028
  105  C  8 XX    0.006762   0.007991   0.008101   0.000001  -0.002121
  106  C  8 YY   -0.003507  -0.006201   0.004339  -0.000019  -0.006849
  107  C  8 ZZ   -0.003254  -0.001790  -0.012441   0.000018   0.008970
  108  C  8 XY    0.015842   0.016222  -0.006467  -0.000004   0.004493
  109  C  8 XZ    0.000018   0.000014   0.000011   0.003965  -0.000002
  110  C  8 YZ    0.000008   0.000007   0.000005   0.007875  -0.000010
  111  C  8  S   -0.054080  -0.029842   0.003040   0.000147   0.061140
  112  C  8  X   -0.007586  -0.005032   0.013979  -0.000099  -0.048189
  113  C  8  Y    0.008507   0.003001   0.000174  -0.000053  -0.011988
  114  C  8  Z   -0.000019  -0.000008   0.000031   0.004713  -0.000006
  115  C  8 XX    0.035400   0.019165  -0.037853   0.000044   0.053550
  116  C  8 YY   -0.013649  -0.027056  -0.000640   0.000015  -0.041159
  117  C  8 ZZ   -0.021751   0.007891   0.038493  -0.000059  -0.012391
  118  C  8 XY    0.039919   0.014802  -0.009718   0.000025  -0.021850
  119  C  8 XZ    0.000030  -0.000007   0.000058  -0.014027   0.000075
  120  C  8 YZ    0.000018  -0.000019   0.000025  -0.046808   0.000069
  121  H  9  S    0.061328  -0.084303  -0.173558   0.171181   0.078232
  122  H  9  S    0.029104  -0.019646  -0.094474   0.058649   0.067630
  123  H  9  X   -0.001354  -0.000214   0.001878  -0.001503  -0.004067
  124  H  9  Y   -0.005156   0.006263   0.008262  -0.007825   0.000463
  125  H  9  Z   -0.006096   0.008151   0.014711  -0.004949  -0.006173
  126  H  9  S   -0.004702  -0.005248  -0.003151  -0.003454   0.004325
  127  H  9  X    0.007917   0.008130   0.005745   0.004512   0.015892
  128  H  9  Y   -0.003909   0.005063   0.020532   0.018956  -0.010692
  129  H  9  Z   -0.002867  -0.000167   0.008534  -0.003816  -0.014945
  130  H 10  S    0.061309  -0.084258  -0.173595  -0.171042   0.078378
  131  H 10  S    0.029163  -0.019700  -0.094337  -0.058386   0.068174
  132  H 10  X   -0.001360  -0.000206   0.001901   0.001506  -0.004074
  133  H 10  Y   -0.005163   0.006268   0.008284   0.007835   0.000452
  134  H 10  Z    0.006089  -0.008142  -0.014703  -0.004925   0.006173
  135  H 10  S   -0.004710  -0.005283  -0.003132   0.003511   0.004338
  136  H 10  X    0.007901   0.008111   0.005810  -0.004480   0.015947
  137  H 10  Y   -0.003942   0.005070   0.020542  -0.019010  -0.010756
  138  H 10  Z    0.002890   0.000173  -0.008476  -0.003750   0.015099
  139  C 11  S   -0.014677  -0.009994  -0.002898   0.000004  -0.000962
  140  C 11  S    0.244084   0.220061   0.103446   0.000038  -0.006943
  141  C 11  S   -0.002980   0.029350   0.079265   0.000062   0.036268
  142  C 11  X    0.024815  -0.074271  -0.073926  -0.000237  -0.064624
  143  C 11  Y    0.016368  -0.022376  -0.076318  -0.000001   0.241576
  144  C 11  Z    0.000024  -0.000065  -0.000086   0.163274  -0.000064
  145  C 11  X   -0.028579  -0.044143  -0.022799  -0.000170   0.007309
  146  C 11  Y   -0.013224  -0.048756  -0.042703  -0.000098   0.036347
  147  C 11  Z   -0.000074  -0.000050   0.000063   0.028708  -0.000057
  148  C 11 XX    0.004757  -0.006290  -0.007349  -0.000009   0.006957
  149  C 11 YY   -0.001031   0.002605  -0.000134   0.000017   0.006561
  150  C 11 ZZ   -0.003726   0.003684   0.007484  -0.000008  -0.013518
  151  C 11 XY    0.005570  -0.006239  -0.009900  -0.000010  -0.004277
  152  C 11 XZ    0.000009  -0.000011  -0.000016   0.006101   0.000007
  153  C 11 YZ    0.000005  -0.000005  -0.000011  -0.005771   0.000030
  154  C 11  S    0.040263   0.033204   0.046149  -0.000101  -0.059786
  155  C 11  X    0.012919   0.015637   0.015477  -0.000027  -0.002618
  156  C 11  Y    0.005423   0.002915  -0.004960  -0.000068  -0.014937
  157  C 11  Z    0.000023   0.000015  -0.000020   0.001747  -0.000046
  158  C 11 XX    0.004905   0.006009  -0.010445  -0.000055  -0.008919
  159  C 11 YY   -0.007024  -0.007182   0.013489  -0.000029  -0.023548
  160  C 11 ZZ    0.002119   0.001173  -0.003043   0.000085   0.032467
  161  C 11 XY   -0.011141  -0.011027   0.004189  -0.000001   0.009904
  162  C 11 XZ   -0.000010  -0.000013   0.000092  -0.001930   0.000019
  163  C 11 YZ   -0.000016  -0.000026   0.000023   0.026118  -0.000056
  164  H 12  S    0.115893   0.140232   0.056008   0.000187   0.187934
  165  H 12  S   -0.010358   0.041878   0.070446   0.000145   0.138769
  166  H 12  X    0.011740   0.011179   0.003658   0.000006   0.009257
  167  H 12  Y   -0.010962  -0.012235  -0.006538  -0.000011  -0.003564
  168  H 12  Z   -0.000002  -0.000004  -0.000003   0.004357  -0.000004
  169  H 12  S    0.002038   0.003739   0.012943   0.000025   0.003407
  170  H 12  X   -0.002147   0.015228   0.021984   0.000007   0.003732
  171  H 12  Y    0.000394  -0.003979  -0.016581  -0.000022  -0.017242
  172  H 12  Z    0.000001   0.000007   0.000019  -0.008493   0.000001
  173  H 13  S    0.111790   0.129486   0.095194  -0.111877  -0.117911
  174  H 13  S    0.023973   0.023067  -0.014359  -0.085103  -0.106486
  175  H 13  X    0.001881   0.000174   0.000213  -0.000493  -0.002844
  176  H 13  Y    0.009066   0.009288   0.004536  -0.005409   0.000733
  177  H 13  Z    0.012654   0.013315   0.008269  -0.003653  -0.008493
  178  H 13  S   -0.001239   0.004659  -0.003705   0.000407  -0.004247
  179  H 13  X   -0.001416   0.000282  -0.002882   0.000571  -0.008505
  180  H 13  Y    0.003043   0.004555  -0.000186  -0.001306  -0.021204
  181  H 13  Z    0.009758   0.005691  -0.008150  -0.017246  -0.008450
  182  H 14  S    0.111787   0.129475   0.095205   0.111819  -0.118241
  183  H 14  S    0.024082   0.022985  -0.014403   0.084725  -0.106396
  184  H 14  X    0.001894   0.000190   0.000217   0.000494  -0.002859
  185  H 14  Y    0.009087   0.009309   0.004550   0.005422   0.000705
  186  H 14  Z   -0.012638  -0.013300  -0.008263  -0.003640   0.008500
  187  H 14  S   -0.001267   0.004650  -0.003663  -0.000496  -0.004182
  188  H 14  X   -0.001388   0.000285  -0.002969  -0.000581  -0.008480
  189  H 14  Y    0.003084   0.004552  -0.000189   0.001255  -0.021182
  190  H 14  Z   -0.009789  -0.005661   0.008160  -0.017175   0.008349

                     11         12         13         14         15
                   -0.5737    -0.5676    -0.5145    -0.4952    -0.4678
                     A          A          A          A          A   
    1  C  1  S   -0.000063   0.000006   0.000337  -0.000001  -0.001358
    2  C  1  S    0.009952  -0.000020  -0.008302   0.000050   0.045683
    3  C  1  S   -0.078727   0.000541  -0.076450   0.000052   0.109909
    4  C  1  X    0.272244  -0.001686   0.050953  -0.000231  -0.211378
    5  C  1  Y   -0.083208   0.000381   0.281517  -0.000136  -0.154333
    6  C  1  Z   -0.001541  -0.269814  -0.000092   0.256516  -0.000132
    7  C  1  X    0.146173  -0.000768   0.082640  -0.000165  -0.197260
    8  C  1  Y    0.030802  -0.000226   0.086481  -0.000067  -0.061027
    9  C  1  Z   -0.000624  -0.080149  -0.000126   0.057031   0.000018
   10  C  1 XX   -0.007036   0.000033  -0.018922   0.000044   0.020108
   11  C  1 YY    0.007568  -0.000065   0.000546   0.000022  -0.008279
   12  C  1 ZZ   -0.000532   0.000033   0.018376  -0.000066  -0.011829
   13  C  1 XY   -0.018222   0.000096   0.006464   0.000029   0.003065
   14  C  1 XZ    0.000036   0.001950   0.000022   0.010705  -0.000045
   15  C  1 YZ   -0.000076  -0.015264   0.000027   0.022563  -0.000043
   16  C  1  S    0.116377  -0.000673   0.059309  -0.000118  -0.126370
   17  C  1  X   -0.025932   0.000139  -0.003604  -0.000008   0.006173
   18  C  1  Y   -0.002882   0.000047  -0.004880   0.000036   0.021638
   19  C  1  Z   -0.000029  -0.012742  -0.000009  -0.000602  -0.000039
   20  C  1 XX   -0.001499  -0.000086   0.008260   0.000002   0.016074
   21  C  1 YY   -0.022614   0.000233   0.013363  -0.000049  -0.015099
   22  C  1 ZZ    0.024113  -0.000147  -0.021623   0.000047  -0.000976
   23  C  1 XY   -0.003705   0.000063  -0.025405  -0.000015   0.006119
   24  C  1 XZ   -0.000045  -0.021964   0.000004   0.001692  -0.000013
   25  C  1 YZ    0.000239   0.034736  -0.000051  -0.019490   0.000046
   26  H  2  S    0.234273  -0.001402  -0.163237   0.000017  -0.008433
   27  H  2  S    0.134448  -0.000789  -0.208053   0.000079   0.080797
   28  H  2  X   -0.008713   0.000050   0.010194  -0.000007  -0.005158
   29  H  2  Y    0.010994  -0.000069   0.000221  -0.000004  -0.006595
   30  H  2  Z   -0.000044  -0.007323  -0.000000   0.008387  -0.000003
   31  H  2  S    0.015475  -0.000050  -0.010242   0.000015   0.010852
   32  H  2  X   -0.021135   0.000152   0.025389  -0.000012  -0.016846
   33  H  2  Y    0.004589   0.000007  -0.030284   0.000006   0.013598
   34  H  2  Z    0.000097   0.018790   0.000004  -0.005709   0.000010
   35  H  3  S   -0.007468   0.197004   0.154247  -0.205662  -0.088564
   36  H  3  S   -0.029329   0.116897   0.140600  -0.201542  -0.053549
   37  H  3  X    0.007716  -0.002787  -0.000764   0.003112  -0.003709
   38  H  3  Y   -0.002898  -0.009507   0.000625   0.009808  -0.000690
   39  H  3  Z    0.000612   0.005483   0.010641  -0.004912  -0.005234
   40  H  3  S    0.005119  -0.005497   0.008264  -0.006857  -0.008930
   41  H  3  X   -0.009427  -0.004783  -0.004703   0.007272   0.007616
   42  H  3  Y    0.006442   0.001871  -0.024117   0.020718   0.006478
   43  H  3  Z    0.002448   0.011890   0.016949  -0.029840  -0.001955
   44  H  4  S   -0.009582  -0.196738   0.154503   0.205248  -0.089188
   45  H  4  S   -0.030437  -0.116679   0.141039   0.201256  -0.054052
   46  H  4  X    0.007743   0.002696  -0.000778  -0.003130  -0.003692
   47  H  4  Y   -0.002797   0.009546   0.000594  -0.009816  -0.000655
   48  H  4  Z   -0.000555   0.005459  -0.010648  -0.004865   0.005252
   49  H  4  S    0.005160   0.005400   0.008327   0.006832  -0.008864
   50  H  4  X   -0.009447   0.004899  -0.004754  -0.007279   0.007614
   51  H  4  Y    0.006402  -0.001900  -0.024191  -0.020722   0.006530
   52  H  4  Z   -0.002360   0.011955  -0.016999  -0.029782   0.001973
   53  C  5  S    0.002216  -0.000018  -0.000468  -0.000002   0.000571
   54  C  5  S   -0.057838   0.000298   0.008264   0.000042   0.029123
   55  C  5  S   -0.069141   0.000521  -0.047909   0.000189   0.112485
   56  C  5  X   -0.150622   0.000719  -0.142490   0.000283   0.151612
   57  C  5  Y   -0.140263   0.000674  -0.129089   0.000174   0.243404
   58  C  5  Z   -0.000808  -0.148855   0.000116  -0.173183   0.000160
   59  C  5  X    0.029312  -0.000262  -0.063937   0.000226   0.023437
   60  C  5  Y   -0.109230   0.000566  -0.007722   0.000084   0.037984
   61  C  5  Z   -0.000543  -0.103862   0.000101  -0.034701   0.000049
   62  C  5 XX    0.000768  -0.000005  -0.010847   0.000053   0.032240
   63  C  5 YY   -0.007398   0.000039   0.000481  -0.000000  -0.013225
   64  C  5 ZZ    0.006629  -0.000034   0.010366  -0.000053  -0.019014
   65  C  5 XY   -0.010718   0.000061   0.003880   0.000034   0.005695
   66  C  5 XZ   -0.000047  -0.011970   0.000024   0.016373  -0.000049
   67  C  5 YZ    0.000081   0.010295   0.000001   0.012804  -0.000043
   68  C  5  S   -0.070144   0.000815  -0.168127   0.000125   0.153433
   69  C  5  X   -0.050951   0.000236  -0.002910   0.000110   0.064430
   70  C  5  Y   -0.019584   0.000159  -0.034869   0.000022   0.038777
   71  C  5  Z    0.000109   0.011013   0.000012  -0.000270  -0.000028
   72  C  5 XX    0.024445  -0.000248   0.016966   0.000027  -0.002073
   73  C  5 YY   -0.015762   0.000095   0.000366  -0.000012  -0.029988
   74  C  5 ZZ   -0.008683   0.000153  -0.017333  -0.000015   0.032061
   75  C  5 XY    0.007854  -0.000034   0.013025   0.000012  -0.014411
   76  C  5 XZ   -0.000062  -0.015883  -0.000026   0.005332   0.000064
   77  C  5 YZ   -0.000104  -0.025955  -0.000017  -0.017626   0.000108
   78  H  6  S    0.046087  -0.105071   0.088102  -0.135272  -0.145707
   79  H  6  S    0.004156  -0.017477   0.120089  -0.133633  -0.179762
   80  H  6  X   -0.004336   0.001027  -0.001723  -0.002463   0.003412
   81  H  6  Y   -0.001333  -0.005062   0.001022  -0.006615  -0.000072
   82  H  6  Z   -0.002915   0.002792  -0.006820   0.003190   0.009164
   83  H  6  S   -0.004584  -0.009352  -0.005788  -0.002097  -0.003452
   84  H  6  X   -0.001924   0.011678   0.012974  -0.011522  -0.006556
   85  H  6  Y   -0.002915   0.013242   0.021676  -0.010595  -0.033402
   86  H  6  Z    0.005240  -0.008117  -0.018684   0.018545   0.016882
   87  H  7  S    0.047457   0.104539   0.088130   0.134922  -0.146335
   88  H  7  S    0.004258   0.017189   0.120392   0.133398  -0.180426
   89  H  7  X   -0.004339  -0.000976  -0.001713   0.002484   0.003395
   90  H  7  Y   -0.001261   0.005077   0.001034   0.006616  -0.000108
   91  H  7  Z    0.002957   0.002758   0.006823   0.003155  -0.009180
   92  H  7  S   -0.004403   0.009398  -0.005840   0.002087  -0.003419
   93  H  7  X   -0.002018  -0.011635   0.012995   0.011525  -0.006598
   94  H  7  Y   -0.003077  -0.013244   0.021767   0.010602  -0.033458
   95  H  7  Z   -0.005388  -0.008045   0.018750   0.018471  -0.016928
   96  C  8  S   -0.002216   0.000018   0.000468  -0.000001   0.000571
   97  C  8  S    0.057838  -0.000298  -0.008264   0.000042   0.029123
   98  C  8  S    0.069141  -0.000520   0.047909   0.000188   0.112485
   99  C  8  X   -0.150622   0.000720  -0.142490  -0.000283  -0.151612
  100  C  8  Y   -0.140263   0.000673  -0.129089  -0.000174  -0.243404
  101  C  8  Z    0.000808   0.148855  -0.000116  -0.173183   0.000150
  102  C  8  X    0.029312  -0.000262  -0.063937  -0.000226  -0.023437
  103  C  8  Y   -0.109229   0.000566  -0.007722  -0.000084  -0.037984
  104  C  8  Z    0.000543   0.103862  -0.000101  -0.034701   0.000050
  105  C  8 XX   -0.000768   0.000005   0.010847   0.000053   0.032240
  106  C  8 YY    0.007398  -0.000039  -0.000481  -0.000000  -0.013225
  107  C  8 ZZ   -0.006629   0.000034  -0.010366  -0.000053  -0.019014
  108  C  8 XY    0.010718  -0.000061  -0.003880   0.000034   0.005695
  109  C  8 XZ   -0.000047  -0.011970   0.000024  -0.016373   0.000049
  110  C  8 YZ    0.000081   0.010295   0.000001  -0.012804   0.000042
  111  C  8  S    0.070144  -0.000816   0.168127   0.000122   0.153433
  112  C  8  X   -0.050951   0.000237  -0.002910  -0.000110  -0.064430
  113  C  8  Y   -0.019584   0.000160  -0.034869  -0.000022  -0.038777
  114  C  8  Z   -0.000109  -0.011013  -0.000012  -0.000270  -0.000027
  115  C  8 XX   -0.024445   0.000248  -0.016966   0.000027  -0.002073
  116  C  8 YY    0.015762  -0.000095  -0.000366  -0.000012  -0.029988
  117  C  8 ZZ    0.008683  -0.000153   0.017333  -0.000015   0.032061
  118  C  8 XY   -0.007854   0.000034  -0.013025   0.000013  -0.014411
  119  C  8 XZ   -0.000062  -0.015883  -0.000026  -0.005333  -0.000064
  120  C  8 YZ   -0.000104  -0.025955  -0.000017   0.017626  -0.000107
  121  H  9  S   -0.046087   0.105070  -0.088102  -0.135272  -0.145717
  122  H  9  S   -0.004156   0.017476  -0.120090  -0.133632  -0.179776
  123  H  9  X   -0.004336   0.001027  -0.001723   0.002463  -0.003412
  124  H  9  Y   -0.001333  -0.005062   0.001022   0.006615   0.000073
  125  H  9  Z    0.002915  -0.002792   0.006820   0.003190   0.009164
  126  H  9  S    0.004584   0.009352   0.005788  -0.002097  -0.003453
  127  H  9  X   -0.001924   0.011677   0.012974   0.011522   0.006556
  128  H  9  Y   -0.002915   0.013242   0.021676   0.010595   0.033404
  129  H  9  Z   -0.005240   0.008117   0.018684   0.018545   0.016884
  130  H 10  S   -0.047457  -0.104539  -0.088130   0.134923  -0.146326
  131  H 10  S   -0.004258  -0.017190  -0.120391   0.133399  -0.180412
  132  H 10  X   -0.004339  -0.000976  -0.001713  -0.002484  -0.003395
  133  H 10  Y   -0.001261   0.005077   0.001034  -0.006616   0.000108
  134  H 10  Z   -0.002957  -0.002758  -0.006823   0.003155  -0.009180
  135  H 10  S    0.004403  -0.009398   0.005840   0.002087  -0.003418
  136  H 10  X   -0.002018  -0.011635   0.012995  -0.011525   0.006598
  137  H 10  Y   -0.003078  -0.013244   0.021767  -0.010602   0.033456
  138  H 10  Z    0.005388   0.008045  -0.018750   0.018471  -0.016926
  139  C 11  S    0.000063  -0.000006  -0.000337  -0.000001  -0.001358
  140  C 11  S   -0.009952   0.000020   0.008302   0.000050   0.045683
  141  C 11  S    0.078727  -0.000542   0.076450   0.000051   0.109909
  142  C 11  X    0.272244  -0.001685   0.050953   0.000231   0.211378
  143  C 11  Y   -0.083208   0.000380   0.281517   0.000135   0.154333
  144  C 11  Z    0.001541   0.269814   0.000093   0.256516  -0.000127
  145  C 11  X    0.146173  -0.000768   0.082640   0.000164   0.197260
  146  C 11  Y    0.030802  -0.000226   0.086481   0.000066   0.061027
  147  C 11  Z    0.000624   0.080149   0.000126   0.057031   0.000018
  148  C 11 XX    0.007036  -0.000033   0.018922   0.000044   0.020108
  149  C 11 YY   -0.007568   0.000065  -0.000546   0.000022  -0.008279
  150  C 11 ZZ    0.000532  -0.000032  -0.018376  -0.000066  -0.011829
  151  C 11 XY    0.018222  -0.000096  -0.006464   0.000029   0.003065
  152  C 11 XZ    0.000036   0.001950   0.000023  -0.010705   0.000045
  153  C 11 YZ   -0.000076  -0.015264   0.000027  -0.022563   0.000042
  154  C 11  S   -0.116377   0.000673  -0.059309  -0.000117  -0.126370
  155  C 11  X   -0.025932   0.000139  -0.003604   0.000008  -0.006173
  156  C 11  Y   -0.002882   0.000048  -0.004880  -0.000036  -0.021638
  157  C 11  Z    0.000029   0.012742   0.000009  -0.000602  -0.000039
  158  C 11 XX    0.001499   0.000086  -0.008260   0.000002   0.016074
  159  C 11 YY    0.022614  -0.000232  -0.013363  -0.000048  -0.015099
  160  C 11 ZZ   -0.024113   0.000147   0.021623   0.000047  -0.000976
  161  C 11 XY    0.003705  -0.000064   0.025405  -0.000015   0.006119
  162  C 11 XZ   -0.000045  -0.021964   0.000004  -0.001692   0.000013
  163  C 11 YZ    0.000239   0.034736  -0.000051   0.019490  -0.000045
  164  H 12  S   -0.234273   0.001401   0.163237   0.000015  -0.008433
  165  H 12  S   -0.134448   0.000788   0.208053   0.000077   0.080797
  166  H 12  X   -0.008713   0.000050   0.010194   0.000006   0.005158
  167  H 12  Y    0.010994  -0.000069   0.000221   0.000004   0.006595
  168  H 12  Z    0.000044   0.007323   0.000000   0.008387  -0.000003
  169  H 12  S   -0.015475   0.000050   0.010242   0.000015   0.010852
  170  H 12  X   -0.021135   0.000152   0.025389   0.000012   0.016846
  171  H 12  Y    0.004589   0.000007  -0.030284  -0.000006  -0.013598
  172  H 12  Z   -0.000097  -0.018790  -0.000004  -0.005709   0.000010
  173  H 13  S    0.007469  -0.197003  -0.154248  -0.205661  -0.088569
  174  H 13  S    0.029329  -0.116896  -0.140602  -0.201541  -0.053556
  175  H 13  X    0.007716  -0.002786  -0.000764  -0.003112   0.003709
  176  H 13  Y   -0.002898  -0.009507   0.000625  -0.009808   0.000690
  177  H 13  Z   -0.000612  -0.005483  -0.010641  -0.004912  -0.005234
  178  H 13  S   -0.005119   0.005497  -0.008264  -0.006857  -0.008931
  179  H 13  X   -0.009427  -0.004783  -0.004703  -0.007272  -0.007616
  180  H 13  Y    0.006442   0.001871  -0.024118  -0.020718  -0.006478
  181  H 13  Z   -0.002449  -0.011890  -0.016949  -0.029840  -0.001956
  182  H 14  S    0.009582   0.196738  -0.154502   0.205249  -0.089183
  183  H 14  S    0.030437   0.116680  -0.141038   0.201257  -0.054044
  184  H 14  X    0.007743   0.002696  -0.000778   0.003130   0.003692
  185  H 14  Y   -0.002797   0.009546   0.000594   0.009816   0.000655
  186  H 14  Z    0.000555  -0.005459   0.010648  -0.004865   0.005252
  187  H 14  S   -0.005160  -0.005400  -0.008327   0.006832  -0.008863
  188  H 14  X   -0.009447   0.004899  -0.004754   0.007279  -0.007614
  189  H 14  Y    0.006402  -0.001900  -0.024191   0.020722  -0.006529
  190  H 14  Z    0.002360  -0.011955   0.016999  -0.029782   0.001972

                     16         17         18         19         20
                   -0.4617    -0.4553     0.0388     0.0453     0.0487
                     A          A          A          A          A   
    1  C  1  S   -0.000000   0.000496  -0.014779  -0.001759  -0.002085
    2  C  1  S   -0.000043  -0.021594   0.006357   0.031986   0.018242
    3  C  1  S   -0.000331  -0.010176   0.612208   0.110611   0.156581
    4  C  1  X    0.000103   0.206742   0.036061   0.024389  -0.001194
    5  C  1  Y   -0.000064  -0.089450   0.015783  -0.006227   0.028239
    6  C  1  Z   -0.135131  -0.000003  -0.000037   0.000006   0.000011
    7  C  1  X    0.000293   0.081662   0.235065   0.498328   0.144723
    8  C  1  Y    0.000134   0.030324   0.063149  -0.061696   0.361533
    9  C  1  Z    0.000237  -0.000078   0.000106  -0.000173   0.000277
   10  C  1 XX   -0.000023   0.009053  -0.003062  -0.001025  -0.004964
   11  C  1 YY   -0.000018  -0.002688   0.002293   0.000877  -0.000383
   12  C  1 ZZ    0.000041  -0.006366   0.000769   0.000148   0.005347
   13  C  1 XY   -0.000029  -0.024107  -0.000481  -0.005853  -0.001600
   14  C  1 XZ   -0.012123   0.000012   0.000006   0.000011   0.000015
   15  C  1 YZ   -0.018780   0.000013   0.000002   0.000003   0.000014
   16  C  1  S    0.000253  -0.044981   2.625378  -0.995574  -0.830372
   17  C  1  X   -0.000034   0.012683   0.334465   1.808367   0.518103
   18  C  1  Y    0.000009   0.022163  -0.163775  -0.304403   0.863365
   19  C  1  Z    0.015270  -0.000050   0.000153  -0.000889   0.000223
   20  C  1 XX    0.000004  -0.006834  -0.017095  -0.047324  -0.046821
   21  C  1 YY    0.000014  -0.018432  -0.000930   0.039687   0.014900
   22  C  1 ZZ   -0.000018   0.025266   0.018025   0.007637   0.031921
   23  C  1 XY   -0.000055   0.008694  -0.056231  -0.107876  -0.043454
   24  C  1 XZ   -0.002369   0.000014   0.000056   0.000005  -0.000129
   25  C  1 YZ    0.015039   0.000043   0.000141   0.000050   0.000141
   26  H  2  S    0.000064   0.207898   0.004218   0.006324  -0.003917
   27  H  2  S   -0.000090   0.225387  -0.629235  -0.847264   0.128890
   28  H  2  X   -0.000003  -0.005919   0.000030  -0.001484  -0.001823
   29  H  2  Y    0.000001   0.006185   0.000005  -0.001122   0.000977
   30  H  2  Z   -0.004524  -0.000000  -0.000001   0.000003   0.000002
   31  H  2  S    0.000004   0.023867  -1.138811  -3.145773   0.697707
   32  H  2  X    0.000003  -0.029257   0.086716   0.141383  -0.045956
   33  H  2  Y   -0.000037   0.022284  -0.089214  -0.113428   0.001513
   34  H  2  Z    0.001971  -0.000001   0.000058   0.000092   0.000068
   35  H  3  S    0.123230  -0.047951   0.007964   0.003665   0.006678
   36  H  3  S    0.171980  -0.094497  -0.464716  -0.023796  -0.479360
   37  H  3  X   -0.002433   0.006532   0.000449  -0.001223  -0.002367
   38  H  3  Y   -0.005118  -0.001358   0.000348  -0.002258  -0.000666
   39  H  3  Z    0.001862  -0.002031   0.000374   0.003135   0.000168
   40  H  3  S    0.015881  -0.017743  -0.539672  -0.342405  -1.468075
   41  H  3  X   -0.009084   0.000773   0.032445  -0.022013   0.064336
   42  H  3  Y   -0.022035   0.016757   0.059209   0.007627   0.031135
   43  H  3  Z    0.029033  -0.011928  -0.064578  -0.003648  -0.104822
   44  H  4  S   -0.123180  -0.047894   0.007964   0.003676   0.006691
   45  H  4  S   -0.171956  -0.094393  -0.466097  -0.023989  -0.481284
   46  H  4  X    0.002447   0.006533   0.000444  -0.001228  -0.002370
   47  H  4  Y    0.005121  -0.001358   0.000355  -0.002261  -0.000656
   48  H  4  Z    0.001849   0.002024  -0.000370  -0.003130  -0.000161
   49  H  4  S   -0.015872  -0.017660  -0.539987  -0.343212  -1.474162
   50  H  4  X    0.009106   0.000775   0.032766  -0.021766   0.064938
   51  H  4  Y    0.022063   0.016756   0.059490   0.007593   0.031493
   52  H  4  Z    0.029000   0.011880   0.064776   0.003712   0.105111
   53  C  5  S    0.000001  -0.001082  -0.010891  -0.001391   0.002658
   54  C  5  S   -0.000009   0.029453  -0.000792   0.002123  -0.019916
   55  C  5  S   -0.000152   0.046799   0.445039   0.018653  -0.219003
   56  C  5  X    0.000013  -0.277134  -0.011787  -0.016978  -0.004360
   57  C  5  Y    0.000018   0.186032  -0.042701  -0.015698   0.015928
   58  C  5  Z    0.262427  -0.000066   0.000044   0.000022   0.000005
   59  C  5  X    0.000278  -0.188431   0.040098   0.527216   0.320259
   60  C  5  Y   -0.000094   0.059136  -0.161899  -0.078081   0.124805
   61  C  5  Z   -0.005105   0.000030  -0.000142  -0.000204   0.000221
   62  C  5 XX   -0.000022   0.007017  -0.002037   0.004998   0.003452
   63  C  5 YY   -0.000020   0.002156   0.001609  -0.004474   0.002470
   64  C  5 ZZ    0.000042  -0.009173   0.000428  -0.000524  -0.005922
   65  C  5 XY   -0.000025  -0.027232   0.001184   0.007799   0.002368
   66  C  5 XZ   -0.000812   0.000012  -0.000005  -0.000008  -0.000008
   67  C  5 YZ   -0.034175   0.000013  -0.000002  -0.000009  -0.000007
   68  C  5  S   -0.000744   0.049438   0.820940  -1.458142   2.579041
   69  C  5  X    0.000008   0.016228  -0.455320   2.635572   0.448476
   70  C  5  Y   -0.000173   0.034111  -0.290619  -0.613317   1.592045
   71  C  5  Z   -0.034152   0.000005   0.000494  -0.001311  -0.001412
   72  C  5 XX    0.000119   0.035734  -0.021327   0.045371   0.042454
   73  C  5 YY    0.000011  -0.038839  -0.006225  -0.034078  -0.091671
   74  C  5 ZZ   -0.000129   0.003104   0.027551  -0.011293   0.049217
   75  C  5 XY    0.000148  -0.019754  -0.001036   0.122841   0.040371
   76  C  5 XZ    0.002315   0.000019   0.000103  -0.000088  -0.000142
   77  C  5 YZ    0.027051   0.000011   0.000141  -0.000078  -0.000144
   78  H  6  S    0.228256  -0.069400   0.013634   0.000639  -0.001478
   79  H  6  S    0.339215  -0.046254  -0.471448   0.023541   0.199336
   80  H  6  X    0.001252  -0.007319  -0.000728  -0.001992  -0.000409
   81  H  6  Y    0.011027   0.001750  -0.000281   0.001177  -0.000956
   82  H  6  Z   -0.004359   0.004249  -0.001229  -0.001692  -0.000187
   83  H  6  S    0.027722   0.007367  -0.286102  -0.433782   1.740938
   84  H  6  X    0.006371   0.000851  -0.008631  -0.051360  -0.056720
   85  H  6  Y    0.047981  -0.011563  -0.072745   0.006482  -0.039839
   86  H  6  Z   -0.058801  -0.002983   0.061799   0.000134  -0.093556
   87  H  7  S   -0.228102  -0.069231   0.013638   0.000619  -0.001476
   88  H  7  S   -0.338848  -0.045963  -0.472438   0.023946   0.201822
   89  H  7  X   -0.001262  -0.007319  -0.000729  -0.001989  -0.000406
   90  H  7  Y   -0.011031   0.001755  -0.000280   0.001179  -0.000957
   91  H  7  Z   -0.004341  -0.004238   0.001235   0.001694   0.000187
   92  H  7  S   -0.027789   0.007448  -0.283953  -0.436285   1.741923
   93  H  7  X   -0.006361   0.000852  -0.008627  -0.051310  -0.056674
   94  H  7  Y   -0.047971  -0.011536  -0.072908   0.006636  -0.039300
[...]

    1             0.450640   0.376847   0.372660   0.277104   0.400933
    2             0.286863  -0.011098   0.145677  -0.000694  -0.010832
    3            -0.004776   0.193845   0.123020   0.211778   0.044712
    4            -0.004469   0.193251   0.123496   0.210891   0.045247
    5             0.251363   0.163279   0.157580   0.128075   0.264088
    6             0.009892   0.042229   0.038758   0.086668   0.127433
    7             0.010485   0.041648   0.038810   0.086177   0.128419
    8             0.251363   0.163279   0.157580   0.128075   0.264088
    9             0.009892   0.042228   0.038758   0.086667   0.127450
   10             0.010485   0.041649   0.038809   0.086178   0.128402
   11             0.450640   0.376847   0.372660   0.277104   0.400933
   12             0.286863  -0.011098   0.145677  -0.000694  -0.010832
   13            -0.004776   0.193843   0.123022   0.211777   0.044718
   14            -0.004469   0.193253   0.123494   0.210893   0.045241

                     16         17

                  2.000000   2.000000

    1             0.058249   0.216411
    2             0.000226   0.217893
    3             0.085224   0.011886
    4             0.085115   0.011855
    5             0.214628   0.496089
    6             0.278501   0.023007
    7             0.278059   0.022860
    8             0.214628   0.496089
    9             0.278489   0.023002
   10             0.278070   0.022865
   11             0.058249   0.216411
   12             0.000226   0.217893
   13             0.085220   0.011884
   14             0.085119   0.011856

               ----- POPULATIONS IN EACH AO -----
                             MULLIKEN      LOWDIN
              1  C  1  S      2.00785     1.81689
              2  C  1  S      0.65284     0.42199
              3  C  1  S      0.03747     0.18377
              4  C  1  X      0.67786     0.58267
              5  C  1  Y      0.68136     0.58146
              6  C  1  Z      0.68305     0.57903
              7  C  1  X      0.31125     0.27213
              8  C  1  Y      0.15991     0.31023
              9  C  1  Z      0.16257     0.31657
             10  C  1 XX      0.01244     0.11886
             11  C  1 YY      0.00982     0.10100
             12  C  1 ZZ      0.01947     0.11120
             13  C  1 XY      0.00576     0.03836
             14  C  1 XZ      0.01872     0.01086
             15  C  1 YZ      0.00000     0.03920
             16  C  1  S      0.17467     0.05019
             17  C  1  X      0.00369     0.03640
             18  C  1  Y     -0.00704     0.02929
             19  C  1  Z      0.00533     0.02816
             20  C  1 XX     -0.01985     0.07882
             21  C  1 YY     -0.01100     0.03916
             22  C  1 ZZ     -0.01869     0.03820
             23  C  1 XY     -0.00071     0.10301
             24  C  1 XZ     -0.02143     0.06781
             25  C  1 YZ      0.00000     0.08090
             26  H  2  S      0.77634     0.53820
             27  H  2  S      0.32596     0.15826
             28  H  2  X      0.01258     0.02450
             29  H  2  Y      0.01210     0.02365
             30  H  2  Z      0.00529     0.01342
             31  H  2  S      0.01081     0.02032
             32  H  2  X     -0.02237     0.06127
             33  H  2  Y     -0.01155     0.07274
             34  H  2  Z     -0.02053     0.06150
             35  H  3  S      0.77529     0.53480
             36  H  3  S      0.32535     0.15478
             37  H  3  X      0.00476     0.01326
             38  H  3  Y      0.01012     0.02052
             39  H  3  Z      0.01490     0.02746
             40  H  3  S      0.01145     0.02092
             41  H  3  X     -0.00924     0.05107
             42  H  3  Y     -0.02615     0.06708
             43  H  3  Z     -0.01843     0.07869
             44  H  4  S      0.77528     0.53478
             45  H  4  S      0.32529     0.15478
             46  H  4  X      0.00476     0.01326
             47  H  4  Y      0.01015     0.02055
             48  H  4  Z      0.01487     0.02742
             49  H  4  S      0.01139     0.02092
             50  H  4  X     -0.00929     0.05107
             51  H  4  Y     -0.02613     0.06712
             52  H  4  Z     -0.01843     0.07863
             53  C  5  S      2.00852     1.81539
             54  C  5  S      0.64865     0.41669
             55  C  5  S      0.18620     0.17091
             56  C  5  X      0.67405     0.57938
             57  C  5  Y      0.67359     0.57656
             58  C  5  Z      0.68339     0.57527
             59  C  5  X      0.41602     0.23836
             60  C  5  Y      0.30834     0.28055
             61  C  5  Z      0.22427     0.30099
             62  C  5 XX      0.01374     0.12394
             63  C  5 YY      0.01646     0.10200
             64  C  5 ZZ      0.02287     0.10767
             65  C  5 XY      0.00820     0.03898
             66  C  5 XZ      0.02516     0.01488
             67  C  5 YZ      0.00000     0.05021
             68  C  5  S     -0.18549     0.04914
             69  C  5  X      0.01962     0.04791
             70  C  5  Y     -0.00232     0.03476
             71  C  5  Z     -0.00106     0.03008
             72  C  5 XX     -0.01319     0.12730
             73  C  5 YY      0.04724     0.07665
             74  C  5 ZZ      0.06105     0.03877
             75  C  5 XY      0.01447     0.12568
             76  C  5 XZ     -0.02237     0.10751
             77  C  5 YZ      0.00000     0.14424
             78  H  6  S      0.78620     0.53320
             79  H  6  S      0.44160     0.14604
             80  H  6  X      0.00385     0.01263
             81  H  6  Y      0.00976     0.02024
             82  H  6  Z      0.01434     0.02684
             83  H  6  S     -0.00721     0.02177
             84  H  6  X     -0.02528     0.04538
             85  H  6  Y     -0.02741     0.05786
             86  H  6  Z     -0.01448     0.07558
             87  H  7  S      0.78620     0.53319
             88  H  7  S      0.44152     0.14603
             89  H  7  X      0.00385     0.01263
             90  H  7  Y      0.00978     0.02026
             91  H  7  Z      0.01433     0.02681
             92  H  7  S     -0.00726     0.02177
             93  H  7  X     -0.02530     0.04541
             94  H  7  Y     -0.02740     0.05789
             95  H  7  Z     -0.01444     0.07554
             96  C  8  S      2.00852     1.81539
             97  C  8  S      0.64865     0.41669
             98  C  8  S      0.18620     0.17091
             99  C  8  X      0.67405     0.57938
            100  C  8  Y      0.67359     0.57656
            101  C  8  Z      0.68339     0.57527
            102  C  8  X      0.41602     0.23836
            103  C  8  Y      0.30834     0.28055
            104  C  8  Z      0.22427     0.30099
            105  C  8 XX      0.01374     0.12394
            106  C  8 YY      0.01646     0.10200
            107  C  8 ZZ      0.02287     0.10767
            108  C  8 XY      0.00820     0.03898
            109  C  8 XZ      0.02516     0.01488
            110  C  8 YZ      0.00000     0.05021
            111  C  8  S     -0.18549     0.04914
            112  C  8  X      0.01962     0.04791
            113  C  8  Y     -0.00232     0.03476
            114  C  8  Z     -0.00106     0.03008
            115  C  8 XX     -0.01319     0.12730
            116  C  8 YY      0.04724     0.07665
            117  C  8 ZZ      0.06105     0.03877
            118  C  8 XY      0.01447     0.12568
            119  C  8 XZ     -0.02237     0.10751
            120  C  8 YZ      0.00000     0.14424
            121  H  9  S      0.78620     0.53320
            122  H  9  S      0.44160     0.14604
            123  H  9  X      0.00385     0.01263
            124  H  9  Y      0.00976     0.02024
            125  H  9  Z      0.01434     0.02684
            126  H  9  S     -0.00721     0.02177
            127  H  9  X     -0.02528     0.04538
            128  H  9  Y     -0.02741     0.05786
            129  H  9  Z     -0.01448     0.07558
            130  H 10  S      0.78620     0.53319
            131  H 10  S      0.44152     0.14603
            132  H 10  X      0.00385     0.01263
            133  H 10  Y      0.00978     0.02026
            134  H 10  Z      0.01433     0.02681
            135  H 10  S     -0.00726     0.02177
            136  H 10  X     -0.02530     0.04541
            137  H 10  Y     -0.02740     0.05789
            138  H 10  Z     -0.01444     0.07554
            139  C 11  S      2.00785     1.81689
            140  C 11  S      0.65284     0.42199
            141  C 11  S      0.03747     0.18377
            142  C 11  X      0.67786     0.58267
            143  C 11  Y      0.68136     0.58146
            144  C 11  Z      0.68305     0.57903
            145  C 11  X      0.31125     0.27213
            146  C 11  Y      0.15991     0.31023
            147  C 11  Z      0.16257     0.31657
            148  C 11 XX      0.01244     0.11886
            149  C 11 YY      0.00982     0.10100
            150  C 11 ZZ      0.01947     0.11120
            151  C 11 XY      0.00576     0.03836
            152  C 11 XZ      0.01872     0.01086
            153  C 11 YZ      0.00000     0.03920
            154  C 11  S      0.17467     0.05019
            155  C 11  X      0.00369     0.03640
            156  C 11  Y     -0.00704     0.02929
            157  C 11  Z      0.00533     0.02816
            158  C 11 XX     -0.01985     0.07882
            159  C 11 YY     -0.01100     0.03916
            160  C 11 ZZ     -0.01869     0.03820
            161  C 11 XY     -0.00071     0.10301
            162  C 11 XZ     -0.02143     0.06781
            163  C 11 YZ      0.00000     0.08090
            164  H 12  S      0.77634     0.53820
            165  H 12  S      0.32596     0.15826
            166  H 12  X      0.01258     0.02450
            167  H 12  Y      0.01210     0.02365
            168  H 12  Z      0.00529     0.01342
            169  H 12  S      0.01081     0.02032
            170  H 12  X     -0.02237     0.06127
            171  H 12  Y     -0.01155     0.07274
            172  H 12  Z     -0.02053     0.06150
            173  H 13  S      0.77529     0.53480
            174  H 13  S      0.32535     0.15478
            175  H 13  X      0.00476     0.01326
            176  H 13  Y      0.01012     0.02052
            177  H 13  Z      0.01490     0.02746
            178  H 13  S      0.01145     0.02092
            179  H 13  X     -0.00924     0.05107
            180  H 13  Y     -0.02615     0.06708
            181  H 13  Z     -0.01843     0.07869
            182  H 14  S      0.77528     0.53478
            183  H 14  S      0.32529     0.15478
            184  H 14  X      0.00476     0.01326
            185  H 14  Y      0.01015     0.02055
            186  H 14  Z      0.01487     0.02742
            187  H 14  S      0.01139     0.02092
            188  H 14  X     -0.00929     0.05107
            189  H 14  Y     -0.02613     0.06712
            190  H 14  Z     -0.01843     0.07863

          ----- MULLIKEN ATOMIC OVERLAP POPULATIONS -----
          (OFF-DIAGONAL ELEMENTS NEED TO BE MULTIPLIED BY 2)

             1           2           3           4           5

    1    4.1792554
    2    0.3364800   1.1604089
    3    0.3628474  -0.1963564   1.1088469
    4    0.3627723  -0.1962901  -0.1227360   1.1086815
    5    0.4919922   0.0995355  -0.0709568  -0.0707866   4.6797599
    6   -0.0719411  -0.0597773   0.0751138  -0.0639397   0.1647795
    7   -0.0717936  -0.0596610  -0.0641081   0.0751261   0.1659216
    8   -0.0439885   0.0103853  -0.0111887  -0.0113948   0.4818288
    9   -0.0121846   0.0036470  -0.0266222   0.0230168  -0.0285296
   10   -0.0123406   0.0036666   0.0229885  -0.0267357  -0.0299541
   11    0.0177089  -0.0108060   0.0086780   0.0086570  -0.0439885
   12   -0.0108060   0.0004956  -0.0015574  -0.0015371   0.0103853
   13    0.0086781  -0.0015574   0.0013683   0.0017452  -0.0111893
   14    0.0086569  -0.0015371   0.0017452   0.0013135  -0.0113941

             6           7           8           9          10

    6    1.3699499
    7   -0.1849896   1.3698646
    8   -0.0285288  -0.0299549   4.6797599
    9   -0.0958437   0.0887058   0.1647801   1.3699510
   10    0.0887060  -0.0954044   0.1659210  -0.1849896   1.3698636
   11   -0.0121849  -0.0123403   0.4919922  -0.0719411  -0.0717936
   12    0.0036470   0.0036666   0.0995355  -0.0597770  -0.0596613
   13   -0.0266222   0.0229885  -0.0709563   0.0751137  -0.0641079
   14    0.0230168  -0.0267357  -0.0707872  -0.0639399   0.0751262

            11          12          13          14

   11    4.1792554
   12    0.3364800   1.1604089
   13    0.3628470  -0.1963563   1.1088466
   14    0.3627726  -0.1962903  -0.1227360   1.1086818

          TOTAL MULLIKEN AND LOWDIN ATOMIC POPULATIONS
       ATOM         MULL.POP.    CHARGE          LOW.POP.     CHARGE
    1 C             5.545337    0.454663         6.036162   -0.036162
    2 H             1.088633   -0.088633         0.973872    0.026128
    3 H             1.088062   -0.088062         0.968577    0.031423
    4 H             1.087892   -0.087892         0.968527    0.031473
    5 C             5.827404    0.172596         6.173785   -0.173785
    6 H             1.181386   -0.181386         0.939539    0.060461
    7 H             1.181286   -0.181286         0.939538    0.060462
    8 C             5.827404    0.172596         6.173785   -0.173785
    9 H             1.181387   -0.181387         0.939539    0.060461
   10 H             1.181285   -0.181285         0.939538    0.060462
   11 C             5.545337    0.454663         6.036162   -0.036162
   12 H             1.088633   -0.088633         0.973872    0.026128
   13 H             1.088062   -0.088062         0.968577    0.031423
   14 H             1.087893   -0.087893         0.968527    0.031473

          MULLIKEN SPHERICAL HARMONIC POPULATIONS
       ATOM           S       P       D      F      G      H      I    TOTAL
    1 C             2.87    2.68   -0.01   0.00   0.00   0.00   0.00    5.55
    2 H             1.11   -0.02    0.00   0.00   0.00   0.00   0.00    1.09
    3 H             1.11   -0.02    0.00   0.00   0.00   0.00   0.00    1.09
    4 H             1.11   -0.02    0.00   0.00   0.00   0.00   0.00    1.09
    5 C             2.66    3.00    0.17   0.00   0.00   0.00   0.00    5.83
    6 H             1.22   -0.04    0.00   0.00   0.00   0.00   0.00    1.18
    7 H             1.22   -0.04    0.00   0.00   0.00   0.00   0.00    1.18
    8 C             2.66    3.00    0.17   0.00   0.00   0.00   0.00    5.83
    9 H             1.22   -0.04    0.00   0.00   0.00   0.00   0.00    1.18
   10 H             1.22   -0.04    0.00   0.00   0.00   0.00   0.00    1.18
   11 C             2.87    2.68   -0.01   0.00   0.00   0.00   0.00    5.55
   12 H             1.11   -0.02    0.00   0.00   0.00   0.00   0.00    1.09
   13 H             1.11   -0.02    0.00   0.00   0.00   0.00   0.00    1.09
   14 H             1.11   -0.02    0.00   0.00   0.00   0.00   0.00    1.09

          -------------------------------
          BOND ORDER AND VALENCE ANALYSIS     BOND ORDER THRESHOLD=0.050
          -------------------------------

                   BOND                       BOND                       BOND
  ATOM PAIR DIST  ORDER      ATOM PAIR DIST  ORDER      ATOM PAIR DIST  ORDER
    1   2  1.086  0.899        1   3  1.086  0.931        1   4  1.086  0.931
    1   5  1.528  1.200        2   3  1.754 -0.079        2   4  1.754 -0.079
    2   5  2.172  0.087        3   4  1.754 -0.063        5   6  1.088  0.785
    5   7  1.088  0.786        5   8  1.530  1.236        6   7  1.741 -0.062
    8   9  1.088  0.785        8  10  1.088  0.786        8  11  1.528  1.200
    8  12  2.172  0.087        9  10  1.741 -0.062       11  12  1.086  0.899
   11  13  1.086  0.931       11  14  1.086  0.931       12  13  1.754 -0.079
   12  14  1.754 -0.079       13  14  1.754 -0.063

                       TOTAL       BONDED        FREE
      ATOM            VALENCE     VALENCE     VALENCE
    1 C                 3.910       3.910       0.000
    2 H                 0.760       0.760      -0.000
    3 H                 0.796       0.796       0.000
    4 H                 0.795       0.795       0.000
    5 C                 4.136       4.136      -0.000
    6 H                 0.708       0.708      -0.000
    7 H                 0.708       0.708      -0.000
    8 C                 4.136       4.136      -0.000
    9 H                 0.708       0.708      -0.000
   10 H                 0.708       0.708      -0.000
   11 C                 3.910       3.910       0.000
   12 H                 0.760       0.760      -0.000
   13 H                 0.796       0.796      -0.000
   14 H                 0.795       0.795       0.000

          ---------------------
          ELECTROSTATIC MOMENTS
          ---------------------

 POINT   1           X           Y           Z (BOHR)    CHARGE
                -0.000000    0.000000   -0.000000       -0.00 (A.U.)
         DX          DY          DZ         /D/  (DEBYE)
    -0.000000   -0.000000    0.000083    0.000083
 ...... END OF PROPERTY EVALUATION ......
 CPU     0: STEP CPU TIME=     0.04 TOTAL CPU TIME=       27.6 (    0.5 MIN)
 TOTAL WALL CLOCK TIME=       27.9 SECONDS, CPU UTILIZATION IS  99.10%



 ---------------------------     ------------------------------
 DISTRIBUTED DATA MP2 ENERGY     PROGRAM WRITTEN BY G. FLETCHER
 ---------------------------     ------------------------------

 DDI: Creating Array [0] - 36100 x 91 = 3285100 words.
    THIS CALCULATION IS RUNNING WITH MWORDS=    5, MEMDDI=     100, AND P=    8
 MEMORY USAGE PER CPU IS 8*(MWORDS + MEMDDI/P)/1024 =    0.1 GBYTES.

 MINIMAL REQUIREMENT FOR THIS RUN IS MWORDS=    1, MEMDDI=       3.
 FOR P=    8, THE MEMORY USAGE PER CPU(CORE) WOULD BE    0.0 GBYTES.


      DIRECT 4-INDEX TRANSFORMATION 
      SCHWARZ INEQUALITY TEST SKIPPED     441717 INTEGRAL BLOCKS

 RESULTS OF MOLLER-PLESSET 2ND ORDER CORRECTION ARE
                     E(SCF)=      -157.3150171133
                       E(2)=        -0.6095806032
                     E(MP2)=      -157.9245977165
 SPIN-COMPONENT-SCALED MP2 RESULTS ARE
                      E(2S)=        -0.4744245142
                      E(2T)=        -0.1351560890
                     E(2ST)=        -0.6143614467 = 6/5 * E(2S) + 1/3 * E(2T)
                    SCS-MP2=      -157.9293785600
 ..... DONE WITH MP2 ENERGY .....
 CPU     0: STEP CPU TIME=     7.45 TOTAL CPU TIME=       35.1 (    0.6 MIN)
 TOTAL WALL CLOCK TIME=       35.3 SECONDS, CPU UTILIZATION IS  99.29%
               580000  WORDS OF DYNAMIC MEMORY USED
 EXECUTION OF GAMESS TERMINATED NORMALLY Fri Feb  5 10:02:53 2016
 DDI: 3729224 bytes (3.6 MB / 0 MWords) used by master data server.

 ----------------------------------------
 CPU timing information for all processes
 ========================================
 0: 34.972 + 0.104 = 35.77
 1: 33.956 + 0.82 = 34.39
 2: 34.814 + 0.86 = 34.901
 3: 34.719 + 0.74 = 34.794
 4: 34.792 + 0.96 = 34.889
 5: 34.671 + 0.70 = 34.742
 6: 33.807 + 0.77 = 33.885
 7: 34.819 + 0.70 = 34.890
 ----------------------------------------
 ddikick.x: exited gracefully.
unset echo
----- accounting info -----
Files used on the master node wr30 were:
-rw-r--r-- 1 kkirsc3m fb03-hpc  562667 Feb  5 10:02 /tmp/4612.wr0.wr.inf.h-brs.de/07.dat
-rw-r--r-- 1 kkirsc3m fb03-hpc    1284 Feb  5 10:02 /tmp/4612.wr0.wr.inf.h-brs.de/07.F05
-rw-r--r-- 1 kkirsc3m fb03-hpc 4155440 Feb  5 10:02 /tmp/4612.wr0.wr.inf.h-brs.de/07.F10
ls: No match.
ls: No match.
ls: No match.
Fri Feb  5 10:02:56 CET 2016
0.284u 0.075s 0:38.75 0.9%	0+0k 16+192io 0pf+0w
