    -----------------------------------------------------------------------
          Psi4: An Open-Source Ab Initio Electronic Structure Package
                              Psi4 0.4.183 Driver

                          Git: Rev {master} 5801071 

    J. M. Turney, A. C. Simmonett, R. M. Parrish, E. G. Hohenstein,
    F. A. Evangelista, J. T. Fermann, B. J. Mintz, L. A. Burns, J. J. Wilke,
    M. L. Abrams, N. J. Russ, M. L. Leininger, C. L. Janssen, E. T. Seidl,
    W. D. Allen, H. F. Schaefer, R. A. King, E. F. Valeev, C. D. Sherrill,
    and T. D. Crawford, WIREs Comput. Mol. Sci. 2, 556-565 (2012)
    (doi: 10.1002/wcms.93)

                         Additional Contributions by
    A. E. DePrince, M. Saitow, U. Bozkaya, A. Yu. Sokolov
    -----------------------------------------------------------------------


    Psi4 started on: Tue Mar 22 15:56:36 2016

    Process ID:  31523
    PSI4DATADIR: /home/karl/miniconda/share/psi4
    Memory level set to 256.000 MB

  ==> Input File <==

--------------------------------------------------------------------------
memory 10 Gb

molecule molecule_002 {
0 1
C          1.58200       -0.56900       -0.15000
H          2.58600       -0.47600        0.25200
H          1.18500       -1.52200        0.18400
H          1.66200       -0.60500       -1.23300
C          0.70600        0.60300        0.29800
H          1.19800        1.53200        0.02100
H          0.63700        0.60800        1.38400
C         -0.70600        0.60300       -0.29800
H         -1.19800        1.53200       -0.02100
H         -0.63700        0.60800       -1.38400
C         -1.58200       -0.56900        0.15000
H         -2.58600       -0.47600       -0.25200
H         -1.18500       -1.52200       -0.18400
H         -1.66200       -0.60400        1.23300
}

set globals {
  basis 6-31G(d)
}
optimize('hf')
--------------------------------------------------------------------------

  Memory set to  10.000 GiB by Python script.
gradient() will perform analytic gradient computation.

*** tstart() called on dakota
*** at Tue Mar 22 15:56:37 2016


         ---------------------------------------------------------
                                   SCF
            by Justin Turney, Rob Parrish, and Andy Simmonett
                              RHF Reference
                        8 Threads,  10000 MiB Core
         ---------------------------------------------------------

  ==> Geometry <==

    Molecular point group: c1
    Full point group: C1

    Geometry (in Angstrom), charge = 0, multiplicity = 1:

       Center              X                  Y                   Z               Mass       
    ------------   -----------------  -----------------  -----------------  -----------------
           C          1.582000000000    -0.566998594069    -0.150000000000    12.000000000000
           H          2.586000000000    -0.473998594069     0.252000000000     1.007825032070
           H          1.185000000000    -1.519998594069     0.184000000000     1.007825032070
           H          1.662000000000    -0.602998594069    -1.233000000000     1.007825032070
           C          0.706000000000     0.605001405931     0.298000000000    12.000000000000
           H          1.198000000000     1.534001405931     0.021000000000     1.007825032070
           H          0.637000000000     0.610001405931     1.384000000000     1.007825032070
           C         -0.706000000000     0.605001405931    -0.298000000000    12.000000000000
           H         -1.198000000000     1.534001405931    -0.021000000000     1.007825032070
           H         -0.637000000000     0.610001405931    -1.384000000000     1.007825032070
           C         -1.582000000000    -0.566998594069     0.150000000000    12.000000000000
           H         -2.586000000000    -0.473998594069    -0.252000000000     1.007825032070
           H         -1.185000000000    -1.519998594069    -0.184000000000     1.007825032070
           H         -1.662000000000    -0.601998594069     1.233000000000     1.007825032070

  Running in c1 symmetry.

  Rotational constants: A =      0.44819  B =      0.15695  C =      0.13436 [cm^-1]
  Rotational constants: A =  13436.48887  B =   4705.14452  C =   4027.96789 [MHz]
  Nuclear repulsion =  132.524257088569357

  Charge       = 0
  Multiplicity = 1
  Electrons    = 34
  Nalpha       = 17
  Nbeta        = 17

  ==> Algorithm <==

  SCF Algorithm Type is DF.
  DIIS enabled.
  MOM disabled.
  Fractional occupation disabled.
  Guess Type is CORE.
  Energy threshold   = 1.00e-08
  Density threshold  = 1.00e-08
  Integral threshold = 0.00e+00

  ==> Primary Basis <==

  Basis Set: 6-31G(D)
    Number of shells: 44
    Number of basis function: 80
    Number of Cartesian functions: 80
    Spherical Harmonics?: false
    Max angular momentum: 2

  ==> Pre-Iterations <==

   -------------------------------------------------------
    Irrep   Nso     Nmo     Nalpha   Nbeta   Ndocc  Nsocc
   -------------------------------------------------------
     A         80      80       0       0       0       0
   -------------------------------------------------------
    Total      80      80      17      17      17       0
   -------------------------------------------------------

  ==> Integral Setup <==

  ==> DFJK: Density-Fitted J/K Matrices <==

    J tasked:                  Yes
    K tasked:                  Yes
    wK tasked:                  No
    OpenMP threads:              8
    Integrals threads:           8
    Memory (MB):              7152
    Algorithm:                Core
    Integral Cache:           NONE
    Schwarz Cutoff:          1E-12
    Fitting Condition:       1E-12

   => Auxiliary Basis Set <=

  Basis Set: 
    Number of shells: 186
    Number of basis function: 574
    Number of Cartesian functions: 574
    Spherical Harmonics?: false
    Max angular momentum: 3

  Minimum eigenvalue in the overlap matrix is 5.4304990778E-03.
  Using Symmetric Orthogonalization.
  SCF Guess: Core (One-Electron) Hamiltonian.

  ==> Iterations <==

                           Total Energy        Delta E     RMS |[F,P]|

   @DF-RHF iter   1:  -122.02543620131692   -1.22025e+02   8.13997e-02 
   @DF-RHF iter   2:  -128.22423789020928   -6.19880e+00   4.98927e-02 DIIS
   @DF-RHF iter   3:  -139.26740469653964   -1.10432e+01   5.50722e-02 DIIS
   @DF-RHF iter   4:  -156.14075229953073   -1.68733e+01   1.75601e-02 DIIS
   @DF-RHF iter   5:  -157.04598245867066   -9.05230e-01   8.00299e-03 DIIS
   @DF-RHF iter   6:  -157.25569468254878   -2.09712e-01   2.90778e-03 DIIS
   @DF-RHF iter   7:  -157.29502955672717   -3.93349e-02   5.92084e-04 DIIS
   @DF-RHF iter   8:  -157.29663316782592   -1.60361e-03   1.96974e-04 DIIS
   @DF-RHF iter   9:  -157.29686283508340   -2.29667e-04   4.84382e-05 DIIS
   @DF-RHF iter  10:  -157.29687966990923   -1.68348e-05   9.48859e-06 DIIS
   @DF-RHF iter  11:  -157.29688036742431   -6.97515e-07   2.04391e-06 DIIS
   @DF-RHF iter  12:  -157.29688039271315   -2.52888e-08   6.33682e-07 DIIS
   @DF-RHF iter  13:  -157.29688039500843   -2.29528e-09   1.48676e-07 DIIS
   @DF-RHF iter  14:  -157.29688039517640   -1.67972e-10   3.02324e-08 DIIS
   @DF-RHF iter  15:  -157.29688039518402   -7.61702e-12   5.44260e-09 DIIS

  ==> Post-Iterations <==

    Orbital Energies (a.u.)
    -----------------------

    Doubly Occupied:                                                      

       1A    -11.214023     2A    -11.213437     3A    -11.206930  
       4A    -11.206927     5A     -1.069021     6A     -0.976715  
       7A     -0.874590     8A     -0.778170     9A     -0.623735  
      10A     -0.618955    11A     -0.574789    12A     -0.534780  
      13A     -0.530609    14A     -0.504702    15A     -0.462983  
      16A     -0.458124    17A     -0.456555  

    Virtual:                                                              

      18A      0.228249    19A      0.278501    20A      0.284504  
      21A      0.296729    22A      0.312817    23A      0.320236  
      24A      0.336253    25A      0.343046    26A      0.359602  
      27A      0.374238    28A      0.404706    29A      0.417986  
      30A      0.463600    31A      0.700378    32A      0.723282  
      33A      0.726646    34A      0.739701    35A      0.765919  
      36A      0.845765    37A      0.875547    38A      0.929096  
      39A      0.961523    40A      1.007421    41A      1.097561  
      42A      1.103520    43A      1.154183    44A      1.155539  
      45A      1.178787    46A      1.181840    47A      1.193352  
      48A      1.225263    49A      1.240290    50A      1.254824  
      51A      1.256246    52A      1.267824    53A      1.287276  
      54A      1.519010    55A      1.718818    56A      1.729363  
      57A      1.825386    58A      1.863234    59A      1.975243  
      60A      2.010019    61A      2.171231    62A      2.249933  
      63A      2.289972    64A      2.297606    65A      2.334910  
      66A      2.439927    67A      2.447377    68A      2.635611  
      69A      2.647315    70A      2.653759    71A      2.694246  
      72A      2.754737    73A      2.786982    74A      2.963491  
      75A      2.971173    76A      3.066707    77A      4.558410  
      78A      4.678328    79A      4.824262    80A      4.934148  

    Final Occupation by Irrep:
              A 
    DOCC [    17 ]

  Energy converged.

  @DF-RHF Final Energy:  -157.29688039518402

   => Energetics <=

    Nuclear Repulsion Energy =            132.5242570885693567
    One-Electron Energy =                -473.0321845274918360
    Two-Electron Energy =                 183.2110470437386027
    DFT Exchange-Correlation Energy =       0.0000000000000000
    Empirical Dispersion Energy =           0.0000000000000000
    PCM Polarization Energy =               0.0000000000000000
    EFP Energy =                            0.0000000000000000
    Total Energy =                       -157.2968803951838765

    Alert: EFP and PCM quantities not currently incorporated into SCF psivars.

Properties will be evaluated at   0.000000,   0.000000,   0.000000 Bohr
  ==> Properties <==


Properties computed using the SCF density matrix

  Nuclear Dipole Moment: (a.u.)
     X:    -0.0000      Y:    -0.8484      Z:     0.0000

  Electronic Dipole Moment: (a.u.)
     X:    -0.0000      Y:     0.8790      Z:    -0.0000

  Dipole Moment: (a.u.)
     X:    -0.0000      Y:     0.0306      Z:    -0.0000     Total:     0.0306

  Dipole Moment: (Debye)
     X:    -0.0001      Y:     0.0777      Z:    -0.0000     Total:     0.0777


  Saving occupied orbitals to File 180.

*** tstop() called on dakota at Tue Mar 22 15:56:38 2016
Module time:
	user time   =       7.11 seconds =       0.12 minutes
	system time =       0.29 seconds =       0.00 minutes
	total time  =          1 seconds =       0.02 minutes
Total time:
	user time   =       7.11 seconds =       0.12 minutes
	system time =       0.29 seconds =       0.00 minutes
	total time  =          1 seconds =       0.02 minutes

*** tstart() called on dakota
*** at Tue Mar 22 15:56:38 2016


         ------------------------------------------------------------
                                   SCF GRAD                          
                          Rob Parrish, Justin Turney,                
                       Andy Simmonett, and Alex Sokolov              
         ------------------------------------------------------------

  ==> Geometry <==

    Molecular point group: c1
    Full point group: C1

    Geometry (in Angstrom), charge = 0, multiplicity = 1:

       Center              X                  Y                   Z               Mass       
    ------------   -----------------  -----------------  -----------------  -----------------
           C          1.582000000000    -0.566998594069    -0.150000000000    12.000000000000
           H          2.586000000000    -0.473998594069     0.252000000000     1.007825032070
           H          1.185000000000    -1.519998594069     0.184000000000     1.007825032070
           H          1.662000000000    -0.602998594069    -1.233000000000     1.007825032070
           C          0.706000000000     0.605001405931     0.298000000000    12.000000000000
           H          1.198000000000     1.534001405931     0.021000000000     1.007825032070
           H          0.637000000000     0.610001405931     1.384000000000     1.007825032070
           C         -0.706000000000     0.605001405931    -0.298000000000    12.000000000000
           H         -1.198000000000     1.534001405931    -0.021000000000     1.007825032070
           H         -0.637000000000     0.610001405931    -1.384000000000     1.007825032070
           C         -1.582000000000    -0.566998594069     0.150000000000    12.000000000000
           H         -2.586000000000    -0.473998594069    -0.252000000000     1.007825032070
           H         -1.185000000000    -1.519998594069    -0.184000000000     1.007825032070
           H         -1.662000000000    -0.601998594069     1.233000000000     1.007825032070

  Nuclear repulsion =  132.524257088569357

  ==> Basis Set <==

  Basis Set: 6-31G(D)
    Number of shells: 44
    Number of basis function: 80
    Number of Cartesian functions: 80
    Spherical Harmonics?: false
    Max angular momentum: 2

  ==> DFJKGrad: Density-Fitted SCF Gradients <==

    Gradient:                    1
    J tasked:                  Yes
    K tasked:                  Yes
    wK tasked:                  No
    OpenMP threads:              8
    Integrals threads:           8
    Memory (MB):              7152
    Schwarz Cutoff:          0E+00
    Fitting Condition:       1E-12

   => Auxiliary Basis Set <=

  Basis Set: 
    Number of shells: 186
    Number of basis function: 574
    Number of Cartesian functions: 574
    Spherical Harmonics?: false
    Max angular momentum: 3


  -Total Gradient:
     Atom            X                  Y                   Z
    ------   -----------------  -----------------  -----------------
       1        0.000481737572    -0.000056998723    -0.000318728847
       2       -0.000131522636    -0.000014207773    -0.000046924396
       3       -0.000097412463    -0.000012934557     0.000016751502
       4       -0.000015754885    -0.000063066359     0.000156769110
       5       -0.000353193415     0.000274551450     0.000274524085
       6       -0.000060055417    -0.000162084146    -0.000003985598
       7        0.000026270212     0.000037357151    -0.000029717285
       8        0.000352430159     0.000273505054    -0.000213846251
       9        0.000063113990    -0.000160078820     0.000002942787
      10       -0.000035213100     0.000027991481     0.000031994414
      11       -0.000481242218    -0.000170155733     0.000328068241
      12        0.000130766856    -0.000015726194     0.000055154920
      13        0.000098371065    -0.000007806184    -0.000081771965
      14        0.000021704278     0.000049653353    -0.000171230716


*** tstop() called on dakota at Tue Mar 22 15:56:39 2016
Module time:
	user time   =      10.07 seconds =       0.17 minutes
	system time =       0.48 seconds =       0.01 minutes
	total time  =          1 seconds =       0.02 minutes
Total time:
	user time   =      17.19 seconds =       0.29 minutes
	system time =       0.77 seconds =       0.01 minutes
	total time  =          2 seconds =       0.03 minutes

			-----------------------------------------
			 OPTKING 2.0: for geometry optimizations 
			  - R.A. King,  Bethel University        
			-----------------------------------------

	Internal coordinates to be generated automatically.
	Detected frag 1 with atoms:  1 2 3 4 5 6 7 8 9 10 11 12 13 14
	---Fragment 1 Bond Connectivity---
	 1 : 2 3 4 5
	 2 : 1
	 3 : 1
	 4 : 1
	 5 : 1 6 7 8
	 6 : 5
	 7 : 5
	 8 : 5 9 10 11
	 9 : 8
	 10 : 8
	 11 : 8 12 13 14
	 12 : 11
	 13 : 11
	 14 : 11

	---Fragment 1 Geometry and Gradient---
	 C           2.9895467422       -1.0714720605       -0.2834589199
	 H           4.8868317796       -0.8957275302        0.4762109855
	 H           2.2393254675       -2.8723810652        0.3477096085
	 H           3.1407248329       -1.1395022013       -2.3300323218
	 C           1.3341466498        1.1432869672        0.5631383876
	 H           2.2638919072        2.8988425447        0.0396842488
	 H           1.2037555466        1.1527355979        2.6153809679
	 C          -1.3341466498        1.1432869672       -0.5631383876
	 H          -2.2638919072        2.8988425447       -0.0396842488
	 H          -1.2037555466        1.1527355979       -2.6153809679
	 C          -2.9895467422       -1.0714720605        0.2834589199
	 H          -4.8868317796       -0.8957275302       -0.4762109855
	 H          -2.2393254675       -2.8723810652       -0.3477096085
	 H          -3.1407248329       -1.1376124752        2.3300323218
	             0.0004817376       -0.0000569987       -0.0003187288
	            -0.0001315226       -0.0000142078       -0.0000469244
	            -0.0000974125       -0.0000129346        0.0000167515
	            -0.0000157549       -0.0000630664        0.0001567691
	            -0.0003531934        0.0002745514        0.0002745241
	            -0.0000600554       -0.0001620841       -0.0000039856
	             0.0000262702        0.0000373572       -0.0000297173
	             0.0003524302        0.0002735051       -0.0002138463
	             0.0000631140       -0.0001600788        0.0000029428
	            -0.0000352131        0.0000279915        0.0000319944
	            -0.0004812422       -0.0001701557        0.0003280682
	             0.0001307669       -0.0000157262        0.0000551549
	             0.0000983711       -0.0000078062       -0.0000817720
	             0.0000217043        0.0000496534       -0.0001712307

	Previous optimization step data not found.  Starting new optimization.

	---Fragment 1 Intrafragment Coordinates---
	 - Coordinate -           - BOHR/RAD -       - ANG/DEG -
	 R(1,2)           =         2.051262	       1.085481
	 R(1,3)           =         2.050483	       1.085069
	 R(1,4)           =         2.053277	       1.086547
	 R(1,5)           =         2.891753	       1.530250
	 R(5,6)           =         2.054363	       1.087122
	 R(5,7)           =         2.056402	       1.088201
	 R(5,8)           =         2.896254	       1.532632
	 R(8,9)           =         2.054363	       1.087122
	 R(8,10)          =         2.056402	       1.088201
	 R(8,11)          =         2.891753	       1.530250
	 R(11,12)         =         2.051262	       1.085481
	 R(11,13)         =         2.050483	       1.085069
	 R(11,14)         =         2.053215	       1.086515
	 B(1,5,6)         =         1.897388	     108.712309
	 B(1,5,7)         =         1.909206	     109.389450
	 B(1,5,8)         =         1.997147	     114.428074
	 B(2,1,3)         =         1.875135	     107.437338
	 B(2,1,4)         =         1.879550	     107.690280
	 B(2,1,5)         =         1.934185	     110.820632
	 B(3,1,4)         =         1.880366	     107.737018
	 B(3,1,5)         =         1.953149	     111.907193
	 B(4,1,5)         =         1.938348	     111.059132
	 B(5,8,9)         =         1.894272	     108.533816
	 B(5,8,10)        =         1.906751	     109.248765
	 B(5,8,11)        =         1.997147	     114.428074
	 B(6,5,7)         =         1.853607	     106.203856
	 B(6,5,8)         =         1.894272	     108.533816
	 B(7,5,8)         =         1.906751	     109.248765
	 B(8,11,12)       =         1.934185	     110.820632
	 B(8,11,13)       =         1.953149	     111.907193
	 B(8,11,14)       =         1.937604	     111.016523
	 B(9,8,10)        =         1.853607	     106.203856
	 B(9,8,11)        =         1.897388	     108.712309
	 B(10,8,11)       =         1.909206	     109.389450
	 B(12,11,13)      =         1.875135	     107.437338
	 B(12,11,14)      =         1.879477	     107.686087
	 B(13,11,14)      =         1.881224	     107.786202
	 D(1,5,8,9)       =        -3.018325	    -172.937296
	 D(1,5,8,10)      =        -1.004348	     -57.544899
	 D(1,5,8,11)      =         1.142630	      65.467901
	 D(2,1,5,6)       =         0.954820	      54.707128
	 D(2,1,5,7)       =        -1.062195	     -60.859268
	 D(2,1,5,8)       =         3.075339	     176.203952
	 D(3,1,5,6)       =         3.047456	     174.606380
	 D(3,1,5,7)       =         1.030442	      59.039984
	 D(3,1,5,8)       =        -1.115209	     -63.896796
	 D(4,1,5,6)       =        -1.133574	     -64.949023
	 D(4,1,5,7)       =         3.132597	     179.484581
	 D(4,1,5,8)       =         0.986945	      56.547801
	 D(5,8,11,12)     =         3.075339	     176.203952
	 D(5,8,11,13)     =        -1.115209	     -63.896796
	 D(5,8,11,14)     =         0.987525	      56.581036
	 D(6,5,8,9)       =        -0.896096	     -51.342493
	 D(6,5,8,10)      =         1.117882	      64.049905
	 D(6,5,8,11)      =        -3.018325	    -172.937296
	 D(7,5,8,9)       =         1.117882	      64.049905
	 D(7,5,8,10)      =         3.131859	     179.442302
	 D(7,5,8,11)      =        -1.004348	     -57.544899
	 D(9,8,11,12)     =         0.954820	      54.707128
	 D(9,8,11,13)     =         3.047456	     174.606380
	 D(9,8,11,14)     =        -1.132994	     -64.915788
	 D(10,8,11,12)    =        -1.062195	     -60.859268
	 D(10,8,11,13)    =         1.030442	      59.039984
	 D(10,8,11,14)    =         3.133177	     179.517817

	Current energy   :      -157.2968803952

	Generating empirical Hessian (Schlegel '84) for each fragment.
	Taking RFO optimization step.
	Going to follow RFO solution 1.
	Using RFO vector 1.
	Norm of target step-size    0.00580
	Projected energy change by RFO approximation:        -0.0000027668

	Back-transformation to cartesian coordinates...
	Successfully converged to displaced geometry.

	--- Internal Coordinate Step in ANG or DEG, aJ/ANG or AJ/DEG ---
	 ---------------------------------------------------------------------------
	   Coordinate                Previous        Force       Change         New 
	   ----------                --------       ------       ------       ------
	    1 R(1,2)          =      1.085481     0.001155     0.000210     1.085691
	    2 R(1,3)          =      1.085069    -0.000430    -0.000078     1.084991
	    3 R(1,4)          =      1.086547     0.001280     0.000233     1.086781
	    4 R(1,5)          =      1.530250    -0.002510    -0.000548     1.529701
	    5 R(5,6)          =      1.087122     0.001357     0.000248     1.087370
	    6 R(5,7)          =      1.088201     0.000257     0.000047     1.088248
	    7 R(5,8)          =      1.532632     0.000982     0.000216     1.532848
	    8 R(8,9)          =      1.087122     0.001356     0.000248     1.087370
	    9 R(8,10)         =      1.088201     0.000280     0.000051     1.088253
	   10 R(8,11)         =      1.530250    -0.002310    -0.000505     1.529745
	   11 R(11,12)        =      1.085481     0.001176     0.000214     1.085695
	   12 R(11,13)        =      1.085069    -0.000560    -0.000102     1.084967
	   13 R(11,14)        =      1.086515     0.001433     0.000261     1.086776
	   14 B(1,5,6)        =    108.712309     0.000002     0.043807   108.756117
	   15 B(1,5,7)        =    109.389450    -0.000002    -0.034342   109.355107
	   16 B(1,5,8)        =    114.428074     0.000001     0.003577   114.431651
	   17 B(2,1,3)        =    107.437338    -0.000004    -0.012742   107.424596
	   18 B(2,1,4)        =    107.690280     0.000001    -0.016912   107.673367
	   19 B(2,1,5)        =    110.820632    -0.000001    -0.015053   110.805579
	   20 B(3,1,4)        =    107.737018     0.000001     0.020393   107.757411
	   21 B(3,1,5)        =    111.907193     0.000010     0.059779   111.966972
	   22 B(4,1,5)        =    111.059132    -0.000007    -0.036534   111.022598
	   23 B(5,8,9)        =    108.533816     0.000001     0.027019   108.560836
	   24 B(5,8,10)       =    109.248765    -0.000002    -0.039746   109.209019
	   25 B(5,8,11)       =    114.428074     0.000000     0.000951   114.429025
	   26 B(6,5,7)        =    106.203856     0.000000    -0.001559   106.202297
	   27 B(6,5,8)        =    108.533816     0.000000     0.027476   108.561292
	   28 B(7,5,8)        =    109.248765    -0.000002    -0.038282   109.210482
	   29 B(8,11,12)      =    110.820632    -0.000003    -0.016429   110.804203
	   30 B(8,11,13)      =    111.907193     0.000011     0.057036   111.964229
	   31 B(8,11,14)      =    111.016523     0.000002     0.008821   111.025344
	   32 B(9,8,10)       =    106.203856    -0.000000    -0.002001   106.201855
	   33 B(9,8,11)       =    108.712309     0.000002     0.040580   108.752889
	   34 B(10,8,11)      =    109.389450    -0.000001    -0.026071   109.363379
	   35 B(12,11,13)     =    107.437338    -0.000004    -0.013116   107.424222
	   36 B(12,11,14)     =    107.686087    -0.000001    -0.011784   107.674303
	   37 B(13,11,14)     =    107.786202    -0.000007    -0.027888   107.758314
	   38 D(1,5,8,9)      =   -172.937296    -0.000000     0.029507  -172.907789
	   39 D(1,5,8,10)     =    -57.544899    -0.000000     0.020526   -57.524373
	   40 D(1,5,8,11)     =     65.467901    -0.000001    -0.043421    65.424480
	   41 D(2,1,5,6)      =     54.707128    -0.000001    -0.051025    54.656103
	   42 D(2,1,5,7)      =    -60.859268    -0.000001    -0.054662   -60.913930
	   43 D(2,1,5,8)      =    176.203952     0.000000     0.019302   176.223254
	   44 D(3,1,5,6)      =    174.606380    -0.000000    -0.037422   174.568957
	   45 D(3,1,5,7)      =     59.039984    -0.000000    -0.041060    58.998924
	   46 D(3,1,5,8)      =    -63.896796     0.000000     0.032905   -63.863892
	   47 D(4,1,5,6)      =    -64.949023     0.000000     0.004109   -64.944914
	   48 D(4,1,5,7)      =    179.484581     0.000000     0.000472   179.485053
	   49 D(4,1,5,8)      =     56.547801     0.000001     0.074436    56.622237
	   50 D(5,8,11,12)    =    176.203952     0.000000     0.007415   176.211367
	   51 D(5,8,11,13)    =    -63.896796     0.000000     0.017763   -63.879033
	   52 D(5,8,11,14)    =     56.581036     0.000001     0.027244    56.608280
	   53 D(6,5,8,9)      =    -51.342493     0.000001     0.108706   -51.233787
	   54 D(6,5,8,10)     =     64.049905     0.000000     0.099724    64.149629
	   55 D(6,5,8,11)     =   -172.937296    -0.000000     0.035778  -172.901518
	   56 D(7,5,8,9)      =     64.049905     0.000001     0.101284    64.151188
	   57 D(7,5,8,10)     =    179.442302     0.000000     0.092302   179.534604
	   58 D(7,5,8,11)     =    -57.544899    -0.000000     0.028356   -57.516543
	   59 D(9,8,11,12)    =     54.707128    -0.000000    -0.058149    54.648978
	   60 D(9,8,11,13)    =    174.606380    -0.000000    -0.047802   174.558578
	   61 D(9,8,11,14)    =    -64.915788     0.000000    -0.038321   -64.954108
	   62 D(10,8,11,12)   =    -60.859268    -0.000000    -0.063983   -60.923251
	   63 D(10,8,11,13)   =     59.039984    -0.000000    -0.053635    58.986349
	   64 D(10,8,11,14)   =    179.517817    -0.000000    -0.044154   179.473663
	 ---------------------------------------------------------------------------

  ==> Convergence Check <==

  Measures of convergence in internal coordinates in au.
  Criteria marked as inactive (o), active & met (*), and active & unmet ( ).
  --------------------------------------------------------------------------------------------- ~
   Step     Total Energy     Delta E     MAX Force     RMS Force      MAX Disp      RMS Disp    ~
  --------------------------------------------------------------------------------------------- ~
    Convergence Criteria    1.00e-06 *    3.00e-04 *             o    1.20e-03 *             o  ~
  --------------------------------------------------------------------------------------------- ~
      1    -157.29688040   -1.57e+02      3.05e-04      8.19e-05 o    1.90e-03      7.25e-04 o  ~
  ---------------------------------------------------------------------------------------------

	Writing optimization data to binary file.
	Structure for next step:
	Cartesian Geometry (in Angstrom)
	    C     1.5816636134  -0.5667353305  -0.1499885662
	    H     2.5858203158  -0.4735720745   0.2521493089
	    H     1.1853449508  -1.5201613723   0.1833506818
	    H     1.6619888291  -0.6016594003  -1.2332338984
	    C     0.7061388971   0.6049603772   0.2978635572
	    H     1.1981384989   1.5345503329   0.0218707572
	    H     0.6367964784   0.6089074552   1.3838932505
	    C    -0.7062731603   0.6049230280  -0.2977158053
	    H    -1.1984628877   1.5343065782  -0.0213674739
	    H    -0.6369036576   0.6093232716  -1.3837463918
	    C    -1.5815713548  -0.5671032846   0.1498637093
	    H    -2.5858120169  -0.4739095390  -0.2520674107
	    H    -1.1851755184  -1.5202954156  -0.1839751603
	    H    -1.6616929879  -0.6025149433   1.2331034417
			--------------------------
			 OPTKING Finished Execution 
			--------------------------

    Structure for next step:
    Molecular point group: c1
    Full point group: C1

    Geometry (in Angstrom), charge = 0, multiplicity = 1:

    C            1.581671563432    -0.566742743361    -0.149992899390
    H            2.585828265782    -0.473579487355     0.252144975654
    H            1.185352900757    -1.520168785104     0.183346348554
    H            1.661996779064    -0.601666813085    -1.233238231585
    C            0.706146847075     0.604952964403     0.297859223940
    H            1.198146448892     1.534542920088     0.021866424021
    H            0.636804428440     0.608900042367     1.383888917329
    C           -0.706265210337     0.604915615231    -0.297720138491
    H           -1.198454937719     1.534299165423    -0.021371807130
    H           -0.636895707571     0.609315858814    -1.383750725002
    C           -1.581563404776    -0.567110697457     0.149859376050
    H           -2.585804066883    -0.473916951859    -0.252071743886
    H           -1.185167568357    -1.520302828375    -0.183979493542
    H           -1.661685037900    -0.602522356158     1.233099108516

gradient() will perform analytic gradient computation.

*** tstart() called on dakota
*** at Tue Mar 22 15:56:39 2016


         ---------------------------------------------------------
                                   SCF
            by Justin Turney, Rob Parrish, and Andy Simmonett
                              RHF Reference
                        8 Threads,  10000 MiB Core
         ---------------------------------------------------------

  ==> Geometry <==

    Molecular point group: c1
    Full point group: C1

    Geometry (in Angstrom), charge = 0, multiplicity = 1:

       Center              X                  Y                   Z               Mass       
    ------------   -----------------  -----------------  -----------------  -----------------
           C          1.581671563432    -0.566742743361    -0.149992899390    12.000000000000
           H          2.585828265782    -0.473579487355     0.252144975654     1.007825032070
           H          1.185352900757    -1.520168785104     0.183346348554     1.007825032070
           H          1.661996779064    -0.601666813085    -1.233238231585     1.007825032070
           C          0.706146847075     0.604952964403     0.297859223940    12.000000000000
           H          1.198146448892     1.534542920088     0.021866424021     1.007825032070
           H          0.636804428440     0.608900042367     1.383888917329     1.007825032070
           C         -0.706265210337     0.604915615231    -0.297720138491    12.000000000000
           H         -1.198454937719     1.534299165423    -0.021371807130     1.007825032070
           H         -0.636895707571     0.609315858814    -1.383750725002     1.007825032070
           C         -1.581563404776    -0.567110697457     0.149859376050    12.000000000000
           H         -2.585804066883    -0.473916951859    -0.252071743886     1.007825032070
           H         -1.185167568357    -1.520302828375    -0.183979493542     1.007825032070
           H         -1.661685037900    -0.602522356158     1.233099108516     1.007825032070

  Running in c1 symmetry.

  Rotational constants: A =      0.44828  B =      0.15699  C =      0.13439 [cm^-1]
  Rotational constants: A =  13439.07453  B =   4706.30665  C =   4028.81262 [MHz]
  Nuclear repulsion =  132.532267305094081

  Charge       = 0
  Multiplicity = 1
  Electrons    = 34
  Nalpha       = 17
  Nbeta        = 17

  ==> Algorithm <==

  SCF Algorithm Type is DF.
  DIIS enabled.
  MOM disabled.
  Fractional occupation disabled.
  Guess Type is READ.
  Energy threshold   = 1.00e-08
  Density threshold  = 1.00e-08
  Integral threshold = 0.00e+00

  ==> Primary Basis <==

  Basis Set: 6-31G(D)
    Number of shells: 44
    Number of basis function: 80
    Number of Cartesian functions: 80
    Spherical Harmonics?: false
    Max angular momentum: 2

  ==> Pre-Iterations <==

   -------------------------------------------------------
    Irrep   Nso     Nmo     Nalpha   Nbeta   Ndocc  Nsocc
   -------------------------------------------------------
     A         80      80       0       0       0       0
   -------------------------------------------------------
    Total      80      80      17      17      17       0
   -------------------------------------------------------

  ==> Integral Setup <==

  ==> DFJK: Density-Fitted J/K Matrices <==

    J tasked:                  Yes
    K tasked:                  Yes
    wK tasked:                  No
    OpenMP threads:              8
    Integrals threads:           8
    Memory (MB):              7152
    Algorithm:                Core
    Integral Cache:           NONE
    Schwarz Cutoff:          1E-12
    Fitting Condition:       1E-12

   => Auxiliary Basis Set <=

  Basis Set: 
    Number of shells: 186
    Number of basis function: 574
    Number of Cartesian functions: 574
    Spherical Harmonics?: false
    Max angular momentum: 3

  Minimum eigenvalue in the overlap matrix is 5.4290876658E-03.
  Using Symmetric Orthogonalization.
  SCF Guess: Reading in previously saved MOs, projecting if necessary.

  Using orbitals from previous SCF, no projection.
  Recomputing DOCC and SOCC from number of alpha and beta electrons from previous calculation.
              A 
    DOCC [    17 ]

  ==> Iterations <==

                           Total Energy        Delta E     RMS |[F,P]|

   @DF-RHF iter   0:  -157.29660979065096   -1.57297e+02   2.47671e-05 
   @DF-RHF iter   1:  -157.29688126053219   -2.71470e-04   3.29243e-06 
   @DF-RHF iter   2:  -157.29688131362110   -5.30889e-08   9.40846e-07 DIIS
   @DF-RHF iter   3:  -157.29688131872200   -5.10090e-09   3.20650e-07 DIIS
   @DF-RHF iter   4:  -157.29688131938923   -6.67228e-10   7.55717e-08 DIIS
   @DF-RHF iter   5:  -157.29688131942095   -3.17186e-11   1.59917e-08 DIIS
   @DF-RHF iter   6:  -157.29688131942345   -2.50111e-12   2.72763e-09 DIIS

  ==> Post-Iterations <==

    Orbital Energies (a.u.)
    -----------------------

    Doubly Occupied:                                                      

       1A    -11.214038     2A    -11.213452     3A    -11.206952  
       4A    -11.206949     5A     -1.069084     6A     -0.976806  
       7A     -0.874502     8A     -0.778135     9A     -0.623748  
      10A     -0.618977    11A     -0.574755    12A     -0.534720  
      13A     -0.530809    14A     -0.504575    15A     -0.462865  
      16A     -0.458344    17A     -0.456423  

    Virtual:                                                              

      18A      0.228236    19A      0.278416    20A      0.284461  
      21A      0.296729    22A      0.312748    23A      0.320248  
      24A      0.336280    25A      0.342948    26A      0.359580  
      27A      0.374265    28A      0.404737    29A      0.418133  
      30A      0.463655    31A      0.700341    32A      0.723293  
      33A      0.726781    34A      0.739521    35A      0.766010  
      36A      0.845885    37A      0.875409    38A      0.929323  
      39A      0.961678    40A      1.007491    41A      1.097557  
      42A      1.103692    43A      1.154013    44A      1.155335  
      45A      1.178526    46A      1.181739    47A      1.193349  
      48A      1.225332    49A      1.240214    50A      1.254652  
      51A      1.256072    52A      1.267734    53A      1.287175  
      54A      1.519110    55A      1.718955    56A      1.729169  
      57A      1.825578    58A      1.863228    59A      1.974911  
      60A      2.010034    61A      2.171477    62A      2.250613  
      63A      2.289560    64A      2.298187    65A      2.334737  
      66A      2.439727    67A      2.447317    68A      2.635735  
      69A      2.647108    70A      2.653597    71A      2.694204  
      72A      2.755388    73A      2.786772    74A      2.963622  
      75A      2.971363    76A      3.066856    77A      4.558493  
      78A      4.678453    79A      4.824108    80A      4.934187  

    Final Occupation by Irrep:
              A 
    DOCC [    17 ]

  Energy converged.

  @DF-RHF Final Energy:  -157.29688131942345

   => Energetics <=

    Nuclear Repulsion Energy =            132.5322673050940807
    One-Electron Energy =                -473.0480300177895288
    Two-Electron Energy =                 183.2188813932717437
    DFT Exchange-Correlation Energy =       0.0000000000000000
    Empirical Dispersion Energy =           0.0000000000000000
    PCM Polarization Energy =               0.0000000000000000
    EFP Energy =                            0.0000000000000000
    Total Energy =                       -157.2968813194237043

    Alert: EFP and PCM quantities not currently incorporated into SCF psivars.

Properties will be evaluated at   0.000000,   0.000000,   0.000000 Bohr
  ==> Properties <==


Properties computed using the SCF density matrix

  Nuclear Dipole Moment: (a.u.)
     X:     0.0001      Y:    -0.8485      Z:    -0.0001

  Electronic Dipole Moment: (a.u.)
     X:    -0.0001      Y:     0.8787      Z:     0.0001

  Dipole Moment: (a.u.)
     X:    -0.0000      Y:     0.0302      Z:     0.0000     Total:     0.0302

  Dipole Moment: (Debye)
     X:    -0.0000      Y:     0.0767      Z:     0.0000     Total:     0.0767


  Saving occupied orbitals to File 180.

*** tstop() called on dakota at Tue Mar 22 15:56:41 2016
Module time:
	user time   =       7.49 seconds =       0.12 minutes
	system time =       0.19 seconds =       0.00 minutes
	total time  =          2 seconds =       0.03 minutes
Total time:
	user time   =      26.15 seconds =       0.44 minutes
	system time =       1.01 seconds =       0.02 minutes
	total time  =          4 seconds =       0.07 minutes

*** tstart() called on dakota
*** at Tue Mar 22 15:56:41 2016


         ------------------------------------------------------------
                                   SCF GRAD                          
                          Rob Parrish, Justin Turney,                
                       Andy Simmonett, and Alex Sokolov              
         ------------------------------------------------------------

  ==> Geometry <==

    Molecular point group: c1
    Full point group: C1

    Geometry (in Angstrom), charge = 0, multiplicity = 1:

       Center              X                  Y                   Z               Mass       
    ------------   -----------------  -----------------  -----------------  -----------------
           C          1.581671563432    -0.566742743361    -0.149992899390    12.000000000000
           H          2.585828265782    -0.473579487355     0.252144975654     1.007825032070
           H          1.185352900757    -1.520168785104     0.183346348554     1.007825032070
           H          1.661996779064    -0.601666813085    -1.233238231585     1.007825032070
           C          0.706146847075     0.604952964403     0.297859223940    12.000000000000
           H          1.198146448892     1.534542920088     0.021866424021     1.007825032070
           H          0.636804428440     0.608900042367     1.383888917329     1.007825032070
           C         -0.706265210337     0.604915615231    -0.297720138491    12.000000000000
           H         -1.198454937719     1.534299165423    -0.021371807130     1.007825032070
           H         -0.636895707571     0.609315858814    -1.383750725002     1.007825032070
           C         -1.581563404776    -0.567110697457     0.149859376050    12.000000000000
           H         -2.585804066883    -0.473916951859    -0.252071743886     1.007825032070
           H         -1.185167568357    -1.520302828375    -0.183979493542     1.007825032070
           H         -1.661685037900    -0.602522356158     1.233099108516     1.007825032070

  Nuclear repulsion =  132.532267305094081

  ==> Basis Set <==

  Basis Set: 6-31G(D)
    Number of shells: 44
    Number of basis function: 80
    Number of Cartesian functions: 80
    Spherical Harmonics?: false
    Max angular momentum: 2

  ==> DFJKGrad: Density-Fitted SCF Gradients <==

    Gradient:                    1
    J tasked:                  Yes
    K tasked:                  Yes
    wK tasked:                  No
    OpenMP threads:              8
    Integrals threads:           8
    Memory (MB):              7152
    Schwarz Cutoff:          0E+00
    Fitting Condition:       1E-12

   => Auxiliary Basis Set <=

  Basis Set: 
    Number of shells: 186
    Number of basis function: 574
    Number of Cartesian functions: 574
    Spherical Harmonics?: false
    Max angular momentum: 3


  -Total Gradient:
     Atom            X                  Y                   Z
    ------   -----------------  -----------------  -----------------
       1        0.000032440278    -0.000060564093     0.000032308355
       2       -0.000012281077     0.000013160151     0.000007700894
       3       -0.000003459232    -0.000018000448     0.000004511748
       4       -0.000025285107     0.000028974856     0.000007783783
       5       -0.000016333284     0.000048354464    -0.000068040973
       6        0.000013187260     0.000030138222     0.000007086250
       7        0.000007322457    -0.000043808845    -0.000031403692
       8        0.000023079627     0.000054114827     0.000041071137
       9       -0.000016820809     0.000027152748    -0.000005404825
      10        0.000003592977    -0.000030781644     0.000027009008
      11       -0.000038046420    -0.000084932712    -0.000000611964
      12        0.000010913941     0.000014386403    -0.000010325011
      13       -0.000000520085    -0.000000597702    -0.000002937604
      14        0.000022209474     0.000022403774    -0.000008747107


*** tstop() called on dakota at Tue Mar 22 15:56:42 2016
Module time:
	user time   =      10.00 seconds =       0.17 minutes
	system time =       0.35 seconds =       0.01 minutes
	total time  =          1 seconds =       0.02 minutes
Total time:
	user time   =      36.16 seconds =       0.60 minutes
	system time =       1.36 seconds =       0.02 minutes
	total time  =          5 seconds =       0.08 minutes

			-----------------------------------------
			 OPTKING 2.0: for geometry optimizations 
			  - R.A. King,  Bethel University        
			-----------------------------------------

	Previous internal coordinate definitions found.
	---Fragment 1 Geometry and Gradient---
	 C           2.9889260871       -1.0709885728       -0.2834455017
	 H           4.8865072490       -0.8949355333        0.4764849498
	 H           2.2399923533       -2.8727026796        0.3464743862
	 H           3.1407187462       -1.1369855000       -2.3304825143
	 C           1.3344241506        1.1431954260        0.5628723594
	 H           2.2641686555        2.8998658581        0.0413215529
	 H           1.2033859700        1.1506543224        2.6151710521
	 C          -1.3346478247        1.1431248463       -0.5626095260
	 H          -2.2647516149        2.8994052286       -0.0403868624
	 H          -1.2035584625        1.1514401016       -2.6149099064
	 C          -2.9887216968       -1.0716839052        0.2831931792
	 H          -4.8864615197       -0.8955732487       -0.4763465618
	 H          -2.2396421258       -2.8729559847       -0.3476708569
	 H          -3.1401296407       -1.1386022421        2.3302196098
	             0.0000324403       -0.0000605641        0.0000323084
	            -0.0000122811        0.0000131602        0.0000077009
	            -0.0000034592       -0.0000180004        0.0000045117
	            -0.0000252851        0.0000289749        0.0000077838
	            -0.0000163333        0.0000483545       -0.0000680410
	             0.0000131873        0.0000301382        0.0000070863
	             0.0000073225       -0.0000438088       -0.0000314037
	             0.0000230796        0.0000541148        0.0000410711
	            -0.0000168208        0.0000271527       -0.0000054048
	             0.0000035930       -0.0000307816        0.0000270090
	            -0.0000380464       -0.0000849327       -0.0000006120
	             0.0000109139        0.0000143864       -0.0000103250
	            -0.0000005201       -0.0000005977       -0.0000029376
	             0.0000222095        0.0000224038       -0.0000087471

	---Fragment 1 Intrafragment Coordinates---
	 - Coordinate -           - BOHR/RAD -       - ANG/DEG -
	 R(1,2)           =         2.051659	       1.085691
	 R(1,3)           =         2.050335	       1.084991
	 R(1,4)           =         2.053718	       1.086781
	 R(1,5)           =         2.890716	       1.529701
	 R(5,6)           =         2.054831	       1.087370
	 R(5,7)           =         2.056491	       1.088248
	 R(5,8)           =         2.896663	       1.532848
	 R(8,9)           =         2.054831	       1.087370
	 R(8,10)          =         2.056500	       1.088253
	 R(8,11)          =         2.890799	       1.529745
	 R(11,12)         =         2.051666	       1.085695
	 R(11,13)         =         2.050290	       1.084967
	 R(11,14)         =         2.053709	       1.086776
	 B(1,5,6)         =         1.898152	     108.756117
	 B(1,5,7)         =         1.908607	     109.355107
	 B(1,5,8)         =         1.997209	     114.431651
	 B(2,1,3)         =         1.874913	     107.424596
	 B(2,1,4)         =         1.879255	     107.673367
	 B(2,1,5)         =         1.933922	     110.805579
	 B(3,1,4)         =         1.880722	     107.757411
	 B(3,1,5)         =         1.954192	     111.966972
	 B(4,1,5)         =         1.937710	     111.022598
	 B(5,8,9)         =         1.894744	     108.560836
	 B(5,8,10)        =         1.906057	     109.209019
	 B(5,8,11)        =         1.997163	     114.429025
	 B(6,5,7)         =         1.853580	     106.202297
	 B(6,5,8)         =         1.894752	     108.561292
	 B(7,5,8)         =         1.906082	     109.210482
	 B(8,11,12)       =         1.933898	     110.804203
	 B(8,11,13)       =         1.954144	     111.964229
	 B(8,11,14)       =         1.937758	     111.025344
	 B(9,8,10)        =         1.853572	     106.201855
	 B(9,8,11)        =         1.898096	     108.752889
	 B(10,8,11)       =         1.908751	     109.363379
	 B(12,11,13)      =         1.874906	     107.424222
	 B(12,11,14)      =         1.879271	     107.674303
	 B(13,11,14)      =         1.880737	     107.758314
	 D(1,5,8,9)       =        -3.017810	    -172.907789
	 D(1,5,8,10)      =        -1.003990	     -57.524373
	 D(1,5,8,11)      =         1.141873	      65.424480
	 D(2,1,5,6)       =         0.953929	      54.656103
	 D(2,1,5,7)       =        -1.063149	     -60.913930
	 D(2,1,5,8)       =         3.075676	     176.223254
	 D(3,1,5,6)       =         3.046803	     174.568957
	 D(3,1,5,7)       =         1.029725	      58.998924
	 D(3,1,5,8)       =        -1.114635	     -63.863892
	 D(4,1,5,6)       =        -1.133503	     -64.944914
	 D(4,1,5,7)       =         3.132605	     179.485053
	 D(4,1,5,8)       =         0.988244	      56.622237
	 D(5,8,11,12)     =         3.075469	     176.211367
	 D(5,8,11,13)     =        -1.114899	     -63.879033
	 D(5,8,11,14)     =         0.988001	      56.608280
	 D(6,5,8,9)       =        -0.894198	     -51.233787
	 D(6,5,8,10)      =         1.119622	      64.149629
	 D(6,5,8,11)      =        -3.017701	    -172.901518
	 D(7,5,8,9)       =         1.119649	      64.151188
	 D(7,5,8,10)      =         3.133470	     179.534604
	 D(7,5,8,11)      =        -1.003853	     -57.516543
	 D(9,8,11,12)     =         0.953805	      54.648978
	 D(9,8,11,13)     =         3.046622	     174.558578
	 D(9,8,11,14)     =        -1.133663	     -64.954108
	 D(10,8,11,12)    =        -1.063311	     -60.923251
	 D(10,8,11,13)    =         1.029506	      58.986349
	 D(10,8,11,14)    =         3.132406	     179.473663

	Current energy   :      -157.2968813194

	Energy change for the previous step:
		Projected    :        -0.0000027668
		Actual       :        -0.0000009242

	Performing BFGS update.
	Previous computed or guess Hessian on step 1.
	Steps to be used in Hessian update: 1
	Taking RFO optimization step.
	Going to follow RFO solution 1.
	Using RFO vector 1.
	Norm of target step-size    0.00529
	Projected energy change by RFO approximation:         0.0000000663

	Back-transformation to cartesian coordinates...
	Could not converge backtransformation.
	Using first guess instead.

	--- Internal Coordinate Step in ANG or DEG, aJ/ANG or AJ/DEG ---
	 ---------------------------------------------------------------------------
	   Coordinate                Previous        Force       Change         New 
	   ----------                --------       ------       ------       ------
	    1 R(1,2)          =      1.085691     0.000061     0.000025     1.085716
	    2 R(1,3)          =      1.084991    -0.000152    -0.000030     1.084961
	    3 R(1,4)          =      1.086781     0.000087     0.000031     1.086812
	    4 R(1,5)          =      1.529701    -0.000063    -0.000052     1.529649
	    5 R(5,6)          =      1.087370    -0.000247    -0.000022     1.087348
	    6 R(5,7)          =      1.088248     0.000263     0.000047     1.088295
	    7 R(5,8)          =      1.532848     0.000162     0.000047     1.532895
	    8 R(8,9)          =      1.087370    -0.000243    -0.000021     1.087349
	    9 R(8,10)         =      1.088253     0.000221     0.000040     1.088293
	   10 R(8,11)         =      1.529745    -0.000279    -0.000091     1.529654
	   11 R(11,12)        =      1.085695     0.000042     0.000022     1.085717
	   12 R(11,13)        =      1.084967    -0.000010    -0.000009     1.084958
	   13 R(11,14)        =      1.086776     0.000091     0.000034     1.086810
	   14 B(1,5,6)        =    108.756117    -0.000001    -0.012604   108.743512
	   15 B(1,5,7)        =    109.355107     0.000002     0.024669   109.379776
	   16 B(1,5,8)        =    114.431651    -0.000001    -0.000799   114.430852
	   17 B(2,1,3)        =    107.424596    -0.000000    -0.005625   107.418971
	   18 B(2,1,4)        =    107.673367    -0.000002    -0.008385   107.664982
	   19 B(2,1,5)        =    110.805579     0.000001     0.004346   110.809924
	   20 B(3,1,4)        =    107.757411    -0.000001    -0.003580   107.753831
	   21 B(3,1,5)        =    111.966972    -0.000002    -0.003366   111.963606
	   22 B(4,1,5)        =    111.022598     0.000004     0.015535   111.038134
	   23 B(5,8,9)        =    108.560836    -0.000001    -0.011854   108.548982
	   24 B(5,8,10)       =    109.209019     0.000000     0.007782   109.216801
	   25 B(5,8,11)       =    114.429025     0.000000     0.001365   114.430390
	   26 B(6,5,7)        =    106.202297    -0.000001    -0.005809   106.196488
	   27 B(6,5,8)        =    108.561292    -0.000000    -0.013078   108.548215
	   28 B(7,5,8)        =    109.210482    -0.000000     0.006748   109.217230
	   29 B(8,11,12)      =    110.804203     0.000002     0.005677   110.809880
	   30 B(8,11,13)      =    111.964229    -0.000001    -0.000216   111.964013
	   31 B(8,11,14)      =    111.025344     0.000003     0.013809   111.039153
	   32 B(9,8,10)       =    106.201855    -0.000000    -0.005007   106.196848
	   33 B(9,8,11)       =    108.752889    -0.000000    -0.008496   108.744393
	   34 B(10,8,11)      =    109.363379     0.000001     0.015364   109.378743
	   35 B(12,11,13)     =    107.424222    -0.000001    -0.004779   107.419442
	   36 B(12,11,14)     =    107.674303    -0.000002    -0.008547   107.665756
	   37 B(13,11,14)     =    107.758314    -0.000001    -0.007177   107.751137
	   38 D(1,5,8,9)      =   -172.907789     0.000000    -0.071926  -172.979715
	   39 D(1,5,8,10)     =    -57.524373     0.000000    -0.080152   -57.604525
	   40 D(1,5,8,11)     =     65.424480     0.000001    -0.053118    65.371363
	   41 D(2,1,5,6)      =     54.656103     0.000000     0.021172    54.677275
	   42 D(2,1,5,7)      =    -60.913930     0.000000     0.021621   -60.892310
	   43 D(2,1,5,8)      =    176.223254    -0.000000    -0.005592   176.217662
	   44 D(3,1,5,6)      =    174.568957     0.000000     0.014745   174.583702
	   45 D(3,1,5,7)      =     58.998924     0.000000     0.015193    59.014117
	   46 D(3,1,5,8)      =    -63.863892    -0.000000    -0.012019   -63.875911
	   47 D(4,1,5,6)      =    -64.944914     0.000000     0.018660   -64.926254
	   48 D(4,1,5,7)      =    179.485053     0.000000     0.019109   179.504161
	   49 D(4,1,5,8)      =     56.622237    -0.000000    -0.008104    56.614133
	   50 D(5,8,11,12)    =    176.211367    -0.000000     0.021042   176.232409
	   51 D(5,8,11,13)    =    -63.879033    -0.000000     0.018711   -63.860322
	   52 D(5,8,11,14)    =     56.608280    -0.000000     0.018989    56.627269
	   53 D(6,5,8,9)      =    -51.233787    -0.000000    -0.098398   -51.332185
	   54 D(6,5,8,10)     =     64.149629    -0.000000    -0.106624    64.043005
	   55 D(6,5,8,11)     =   -172.901518     0.000000    -0.079589  -172.981107
	   56 D(7,5,8,9)      =     64.151188    -0.000000    -0.108799    64.042389
	   57 D(7,5,8,10)     =    179.534604    -0.000000    -0.117025   179.417579
	   58 D(7,5,8,11)     =    -57.516543    -0.000000    -0.089991   -57.606533
	   59 D(9,8,11,12)    =     54.648978     0.000000     0.041712    54.690691
	   60 D(9,8,11,13)    =    174.558578     0.000000     0.039382   174.597960
	   61 D(9,8,11,14)    =    -64.954108     0.000000     0.039659   -64.914449
	   62 D(10,8,11,12)   =    -60.923251     0.000000     0.044004   -60.879247
	   63 D(10,8,11,13)   =     58.986349     0.000000     0.041673    59.028022
	   64 D(10,8,11,14)   =    179.473663     0.000000     0.041950   179.515613
	 ---------------------------------------------------------------------------

  ==> Convergence Check <==

  Measures of convergence in internal coordinates in au.
  Criteria marked as inactive (o), active & met (*), and active & unmet ( ).
  ---------------------------------------------------------------------------------------------
   Step     Total Energy     Delta E     MAX Force     RMS Force      MAX Disp      RMS Disp   
  ---------------------------------------------------------------------------------------------
    Convergence Criteria    1.00e-06 *    3.00e-04 *             o    1.20e-03 *             o
  ---------------------------------------------------------------------------------------------
      2    -157.29688132   -9.24e-07 *    5.20e-05 *    1.72e-05 o    2.04e-03      6.61e-04 o  ~
  ---------------------------------------------------------------------------------------------


  **** Optimization is complete! (in 2 steps) ****

  ==> Optimization Summary <==

  Measures of convergence in internal coordinates in au.
  --------------------------------------------------------------------------------------------------------------- ~
   Step         Total Energy             Delta E       MAX Force       RMS Force        MAX Disp        RMS Disp  ~
  --------------------------------------------------------------------------------------------------------------- ~
      1    -157.296880395184   -157.296880395184      0.00030469      0.00008194      0.00189728      0.00072543  ~
      2    -157.296881319423     -0.000000924239      0.00005195      0.00001720      0.00204247      0.00066092  ~
  --------------------------------------------------------------------------------------------------------------- ~

	Writing optimization data to binary file.
	Final energy is   -157.2968813194234
	Final (previous) structure:
	Cartesian Geometry (in Angstrom)
	    C     1.5816715634  -0.5667427434  -0.1499928994
	    H     2.5858282658  -0.4735794874   0.2521449757
	    H     1.1853529008  -1.5201687851   0.1833463486
	    H     1.6619967791  -0.6016668131  -1.2332382316
	    C     0.7061468471   0.6049529644   0.2978592239
	    H     1.1981464489   1.5345429201   0.0218664240
	    H     0.6368044284   0.6089000424   1.3838889173
	    C    -0.7062652103   0.6049156152  -0.2977201385
	    H    -1.1984549377   1.5342991654  -0.0213718071
	    H    -0.6368957076   0.6093158588  -1.3837507250
	    C    -1.5815634048  -0.5671106975   0.1498593760
	    H    -2.5858040669  -0.4739169519  -0.2520717439
	    H    -1.1851675684  -1.5203028284  -0.1839794935
	    H    -1.6616850379  -0.6025223562   1.2330991085
	Saving final (previous) structure.
			--------------------------
			 OPTKING Finished Execution 
			--------------------------

    Final optimized geometry and variables:
    Molecular point group: c1
    Full point group: C1

    Geometry (in Angstrom), charge = 0, multiplicity = 1:

    C            1.581671563432    -0.566742743361    -0.149992899390
    H            2.585828265782    -0.473579487355     0.252144975654
    H            1.185352900757    -1.520168785104     0.183346348554
    H            1.661996779064    -0.601666813085    -1.233238231585
    C            0.706146847075     0.604952964403     0.297859223940
    H            1.198146448892     1.534542920088     0.021866424021
    H            0.636804428440     0.608900042367     1.383888917329
    C           -0.706265210337     0.604915615231    -0.297720138491
    H           -1.198454937719     1.534299165423    -0.021371807130
    H           -0.636895707571     0.609315858814    -1.383750725002
    C           -1.581563404776    -0.567110697457     0.149859376050
    H           -2.585804066883    -0.473916951859    -0.252071743886
    H           -1.185167568357    -1.520302828375    -0.183979493542
    H           -1.661685037900    -0.602522356158     1.233099108516

	Cleaning optimization helper files.

*** PSI4 exiting successfully. Buy a developer a beer!
