----- GAMESS execution script 'rungms' -----
This job is running on host mschen3m-ThinkPad-X230-Tablet
under operating system Linux at Wed Dec 6 19:36:47 CET 2017
Available scratch disk space (Kbyte units) at beginning of the job is
Filesystem     1K-blocks     Used Available Use% Mounted on
/dev/sda6       44059880 21522116  20276704  52% /
GAMESS temporary binary files will be written to /tmp
GAMESS supplementary output files will be written to /tmp
Copying input file RHF_butane.inp to your run's scratch directory...

 Distributed Data Interface kickoff program.
 Initiating 1 compute processes on 1 nodes to run the following command:
 /usr/local/gamess/gamess.00.x RHF_butane 

          ******************************************************
          *         GAMESS VERSION = 30 SEPT 2017 (R2)         *
          *             FROM IOWA STATE UNIVERSITY             *
          * M.W.SCHMIDT, K.K.BALDRIDGE, J.A.BOATZ, S.T.ELBERT, *
          *   M.S.GORDON, J.H.JENSEN, S.KOSEKI, N.MATSUNAGA,   *
          *          K.A.NGUYEN, S.J.SU, T.L.WINDUS,           *
          *       TOGETHER WITH M.DUPUIS, J.A.MONTGOMERY       *
          *         J.COMPUT.CHEM.  14, 1347-1363(1993)        *
          **************** 64 BIT LINUX VERSION ****************

  SINCE 1993, STUDENTS AND POSTDOCS WORKING AT IOWA STATE UNIVERSITY
  AND ALSO IN THEIR VARIOUS JOBS AFTER LEAVING ISU HAVE MADE IMPORTANT
  CONTRIBUTIONS TO THE CODE:
     IVANA ADAMOVIC, CHRISTINE AIKENS, YURI ALEXEEV, POOJA ARORA,
     ANDREY ASADCHEV, ROB BELL, PRADIPTA BANDYOPADHYAY, JONATHAN BENTZ,
     BRETT BODE, KURT BRORSEN, CALEB CARLIN, GALINA CHABAN, WEI CHEN,
     CHEOL HO CHOI, PAUL DAY, ALBERT DEFUSCO, NUWAN DESILVA, TIM DUDLEY,
     DMITRI FEDOROV, ALEX FINDLATER, GRAHAM FLETCHER, MARK FREITAG,
     KURT GLAESEMANN, ANASTASIA GUININA,
     DAN KEMP, GRANT MERRILL, NORIYUKI MINEZAWA, JONATHAN MULLIN,
     TAKESHI NAGATA, SEAN NEDD, HEATHER NETZLOFF, BOSILJKA NJEGIC, RYAN OLSON,
     MIKE PAK, BUU PHAM,
     SPENCER PRUITT, LUKE ROSKOP, JIM SHOEMAKER, LYUDMILA SLIPCHENKO,
     TONY SMITH, SAROM SOK LEANG, JIE SONG, TETSUYA TAKETSUGU, SIMON WEBB,
     PENG XU, SOOHAENG YOO, FEDERICO ZAHARIEV

  ADDITIONAL CODE HAS BEEN PROVIDED BY COLLABORATORS IN OTHER GROUPS:
     IOWA STATE UNIVERSITY:
          JOE IVANIC, AARON WEST, LAIMUTIS BYTAUTAS, KLAUS RUEDENBERG
     UNIVERSITY OF TOKYO: KIMIHIKO HIRAO, TAKAHITO NAKAJIMA,
          TAKAO TSUNEDA, MUNEAKI KAMIYA, SUSUMU YANAGISAWA,
          KIYOSHI YAGI, MAHITO CHIBA, SEIKEN TOKURA, NAOAKI KAWAKAMI
     UNIVERSITY OF AARHUS: FRANK JENSEN
     UNIVERSITY OF IOWA: VISVALDAS KAIRYS, HUI LI
     NATIONAL INST. OF STANDARDS AND TECHNOLOGY: WALT STEVENS, DAVID GARMER
     UNIVERSITY OF PISA: BENEDETTA MENNUCCI, JACOPO TOMASI
     UNIVERSITY OF MEMPHIS: HENRY KURTZ, PRAKASHAN KORAMBATH
     UNIVERSITY OF ALBERTA: TOBY ZENG, MARIUSZ KLOBUKOWSKI
     UNIVERSITY OF NEW ENGLAND: MARK SPACKMAN
     MIE UNIVERSITY: HIROAKI UMEDA
     NAT. INST. OF ADVANCED INDUSTRIAL SCIENCE AND TECHNOLOGY: KAZUO KITAURA
     MICHIGAN STATE UNIVERSITY:
          KAROL KOWALSKI, MARTA WLOCH, JEFFREY GOUR, JESSE LUTZ,
          WEI LI, PIOTR PIECUCH
     UNIVERSITY OF SILESIA: MONIKA MUSIAL, STANISLAW KUCHARSKI
     FACULTES UNIVERSITAIRES NOTRE-DAME DE LA PAIX:
          OLIVIER QUINET, BENOIT CHAMPAGNE
     UNIVERSITY OF CALIFORNIA - SANTA BARBARA: BERNARD KIRTMAN
     INSTITUTE FOR MOLECULAR SCIENCE:
          KAZUYA ISHIMURA, MICHIO KATOUDA, AND SHIGERU NAGASE
     UNIVERSITY OF NOTRE DAME: ANNA POMOGAEVA, DAN CHIPMAN
     KYUSHU UNIVERSITY:
          HARUYUKI NAKANO,
          FENG LONG GU, JACEK KORCHOWIEC, MARCIN MAKOWSKI, AND YURIKO AOKI,
          HIROTOSHI MORI AND EISAKU MIYOSHI
     PENNSYLVANIA STATE UNIVERSITY:
          TZVETELIN IORDANOV, CHET SWALINA, JONATHAN SKONE,
          SHARON HAMMES-SCHIFFER
     WASEDA UNIVERSITY:
          MASATO KOBAYASHI, TOMOKO AKAMA, TSUGUKI TOUMA,
          TAKESHI YOSHIKAWA, YASUHIRO IKABATA, JUNJI SEINO,
          YUYA NAKAJIMA, HIROMI NAKAI
     NANJING UNIVERSITY: SHUHUA LI
     UNIVERSITY OF NEBRASKA:
          PEIFENG SU, DEJUN SI, NANDUN THELLAMUREGE, YALI WANG, HUI LI
     UNIVERSITY OF ZURICH: ROBERTO PEVERATI, KIM BALDRIDGE
     N. COPERNICUS UNIVERSITY AND JACKSON STATE UNIVERSITY:
          MARIA BARYSZ
     UNIVERSITY OF COPENHAGEN: Jimmy Kromann, CASPER STEINMANN
     TOKYO INSTITUTE OF TECHNOLOGY: HIROYA NAKATA
     NAGOYA UNIVERSITY: YOSHIO NISHIMOTO, STEPHAN IRLE
     MOSCOW STATE UNIVERSITY: VLADIMIR MIRONOV

 EXECUTION OF GAMESS BEGUN Wed Dec  6 19:36:47 2017

            ECHO OF THE FIRST FEW INPUT CARDS -
 INPUT CARD> $CONTRL                                                                        
 INPUT CARD>! default=RHF                                                                   
 INPUT CARD>SCFTYP=RHF                                                                      
 INPUT CARD>! default=ENERGY    Optimize the molecular geometry using analytic energy gradie
 INPUT CARD>RUNTYP=OPTIMIZE                                                                 
 INPUT CARD>! default=UNIQUE    choice for molecular geometry in $DATA                      
 INPUT CARD>COORD=PRINAXIS                                                                  
 INPUT CARD>! default=0, use cartesian coordinates USUALLY 3N-6                             
 INPUT CARD>NZVAR=36                                                                        
 INPUT CARD>! default=-1                                                                    
 INPUT CARD>ISPHER=0                                                                        
 INPUT CARD> $END                                                                           
 INPUT CARD>                                                                                
 INPUT CARD>! Use this for memory checking                                                  
 INPUT CARD>! $CONTRL EXETYP=CHECK $END                                                     
 INPUT CARD>                                                                                
 INPUT CARD> $SYSTEM                                                                        
 INPUT CARD>! default=1     replicated memory per core in multiples of 8x1024x1024bytes=8MB 
 INPUT CARD>MWORDS=60                                                                       
 INPUT CARD>!           memory for distributed data in multiples of 8x1024x1024bytes=8MB    
 INPUT CARD>MEMDDI=0                                                                        
 INPUT CARD>! default=525600.0  time limit in min, choose 95% of walltime to allow proper jo
 INPUT CARD>TIMLIM=10                                                                       
 INPUT CARD> $END                                                                           
 INPUT CARD>                                                                                
 INPUT CARD> $BASIS                                                                         
 INPUT CARD>!           pople's N-31G split valence basis set.                              
 INPUT CARD>GBASIS=N31                                                                      
 INPUT CARD>!           number N of Gaussians                                               
 INPUT CARD>NGAUSS=6                                                                        
 INPUT CARD>!           number of heavy atom polarization functions (usually d functions)   
 INPUT CARD>NDFUNC=1                                                                        
 INPUT CARD>!           number of light atom, p type polarization functions to be used on H-
 INPUT CARD>NPFUNC=0                                                                        
 INPUT CARD>! default=.FALSE.   flag to add diffuse sp (L) shell to heavy atoms.            
 INPUT CARD>DIFFSP=.F.                                                                      
 INPUT CARD> $END                                                                           
 INPUT CARD>                                                                                
 INPUT CARD> $DATA                                                                          
 INPUT CARD>Full optimization (a comment line)                                              
 INPUT CARD> C1                                                                             
 INPUT CARD> C     6.0      1.954   0.132   0.000                                           
 INPUT CARD> H     1.0      2.738  -0.619   0.000                                           
 INPUT CARD> H     1.0      2.096   0.757  -0.877                                           
 INPUT CARD> H     1.0      2.096   0.757   0.877                                           
 INPUT CARD> C     6.0      0.568  -0.512   0.000                                           
 INPUT CARD> H     1.0      0.470  -1.157   0.870                                           
 INPUT CARD> H     1.0      0.470  -1.157  -0.870                                           
 INPUT CARD> C     6.0     -0.568   0.512   0.000                                           
 INPUT CARD> H     1.0     -0.470   1.157   0.870                                           
   60000000 WORDS OF MEMORY AVAILABLE

     BASIS OPTIONS
     -------------
     GBASIS=N31          IGAUSS=       6      POLAR=POPN31  
     NDFUNC=       1     NFFUNC=       0     DIFFSP=       F
     NPFUNC=       0      DIFFS=       F     BASNAM=        


     RUN TITLE
     ---------
 Full optimization (a comment line)                                              

 THE POINT GROUP OF THE MOLECULE IS C1      
 THE ORDER OF THE PRINCIPAL AXIS IS     0

 THE MOMENTS OF INERTIA ARE (AMU-ANGSTROM**2)
 IXX=    21.340   IYY=   139.241   IZZ=   148.278

 ATOM      ATOMIC                      COORDINATES (BOHR)
           CHARGE         X                   Y                   Z
 C           6.0    -3.6925218087       -0.2494848506        0.0000000000
 H           1.0    -5.1740827487        1.1696829076        0.0000000000
 H           1.0    -3.9608497784       -1.4305665738       -1.6572896912
 H           1.0    -3.9608497784       -1.4305665738        1.6572896912
 C           6.0    -1.0733751094        0.9675277817        0.0000000000
 H           1.0    -0.8881955030        2.1864031010        1.6440616093
 H           1.0    -0.8881955030        2.1864031010       -1.6440616093
 C           6.0     1.0733751094       -0.9675277817        0.0000000000
 H           1.0     0.8881955030       -2.1864031010        1.6440616093
 H           1.0     0.8881955030       -2.1864031010       -1.6440616093
 C           6.0     3.6925218087        0.2494848506        0.0000000000
 H           1.0     5.1740827487       -1.1696829076        0.0000000000
 H           1.0     3.9608497784        1.4305665738       -1.6572896912
 H           1.0     3.9608497784        1.4305665738        1.6572896912

          INTERNUCLEAR DISTANCES (ANGS.)
          ------------------------------

                1 C          2 H          3 H          4 H          5 C     

   1 C       0.0000000    1.0856597 *  1.0862403 *  1.0862403 *  1.5283102 *
   2 H       1.0856597 *  0.0000000    1.7534734 *  1.7534734 *  2.1726364 *
   3 H       1.0862403 *  1.7534734 *  0.0000000    1.7540000 *  2.1712379 *
   4 H       1.0862403 *  1.7534734 *  1.7540000 *  0.0000000    2.1712379 *
   5 C       1.5283102 *  2.1726364 *  2.1712379 *  2.1712379 *  0.0000000  
   6 H       2.1495760 *  2.4880048 *  3.0592942    2.5114380 *  1.0874415 *
   7 H       2.1495760 *  2.4880048 *  2.5114380 *  3.0592942    1.0874415 *
   8 C       2.5504674 *  3.4941089    2.8153241 *  2.8153241 *  1.5294025 *
   9 H       2.7718768 *  3.7685992    3.1299145    2.5969992 *  2.1493964 *
  10 H       2.7718768 *  3.7685992    2.5969992 *  3.1299145    2.1493964 *
  11 C       3.9169069    4.7172061    4.2381541    4.2381541    2.5504674 *
  12 H       4.7172061    5.6141981    4.9148478    4.9148478    3.4941089  
  13 H       4.2381541    4.9148478    4.4570237    4.7897365    2.8153241 *
  14 H       4.2381541    4.9148478    4.7897365    4.4570237    2.8153241 *

                6 H          7 H          8 C          9 H         10 H     

   1 C       2.1495760 *  2.1495760 *  2.5504674 *  2.7718768 *  2.7718768 *
   2 H       2.4880048 *  2.4880048 *  3.4941089    3.7685992    3.7685992  
   3 H       3.0592942    2.5114380 *  2.8153241 *  3.1299145    2.5969992 *
   4 H       2.5114380 *  3.0592942    2.8153241 *  2.5969992 *  3.1299145  
   5 C       1.0874415 *  1.0874415 *  1.5294025 *  2.1493964 *  2.1493964 *
   6 H       0.0000000    1.7400000 *  2.1493964 *  2.4976381 *  3.0439770  
   7 H       1.7400000 *  0.0000000    2.1493964 *  3.0439770    2.4976381 *
   8 C       2.1493964 *  2.1493964 *  0.0000000    1.0874415 *  1.0874415 *
   9 H       2.4976381 *  3.0439770    1.0874415 *  0.0000000    1.7400000 *
  10 H       3.0439770    2.4976381 *  1.0874415 *  1.7400000 *  0.0000000  
  11 C       2.7718768 *  2.7718768 *  1.5283102 *  2.1495760 *  2.1495760 *
  12 H       3.7685992    3.7685992    2.1726364 *  2.4880048 *  2.4880048 *
  13 H       3.1299145    2.5969992 *  2.1712379 *  3.0592942    2.5114380 *
  14 H       2.5969992 *  3.1299145    2.1712379 *  2.5114380 *  3.0592942  

               11 C         12 H         13 H         14 H     

   1 C       3.9169069    4.7172061    4.2381541    4.2381541  
   2 H       4.7172061    5.6141981    4.9148478    4.9148478  
   3 H       4.2381541    4.9148478    4.4570237    4.7897365  
   4 H       4.2381541    4.9148478    4.7897365    4.4570237  
   5 C       2.5504674 *  3.4941089    2.8153241 *  2.8153241 *
   6 H       2.7718768 *  3.7685992    3.1299145    2.5969992 *
   7 H       2.7718768 *  3.7685992    2.5969992 *  3.1299145  
   8 C       1.5283102 *  2.1726364 *  2.1712379 *  2.1712379 *
   9 H       2.1495760 *  2.4880048 *  3.0592942    2.5114380 *
  10 H       2.1495760 *  2.4880048 *  2.5114380 *  3.0592942  
  11 C       0.0000000    1.0856597 *  1.0862403 *  1.0862403 *
  12 H       1.0856597 *  0.0000000    1.7534734 *  1.7534734 *
  13 H       1.0862403 *  1.7534734 *  0.0000000    1.7540000 *
  14 H       1.0862403 *  1.7534734 *  1.7540000 *  0.0000000  

  * ... LESS THAN  3.000


     ATOMIC BASIS SET
     ----------------
 THE CONTRACTED PRIMITIVE FUNCTIONS HAVE BEEN UNNORMALIZED
 THE CONTRACTED BASIS FUNCTIONS ARE NOW NORMALIZED TO UNITY

  SHELL TYPE  PRIMITIVE        EXPONENT          CONTRACTION COEFFICIENT(S)

 C         

      1   S       1          3047.5248800    0.001834737132
      1   S       2           457.3695180    0.014037322813
      1   S       3           103.9486850    0.068842622264
      1   S       4            29.2101553    0.232184443216
      1   S       5             9.2866630    0.467941348435
      1   S       6             3.1639270    0.362311985337

      2   L       7             7.8682723   -0.119332419775    0.068999066591
      2   L       8             1.8812885   -0.160854151696    0.316423960957
      2   L       9             0.5442493    1.143456437840    0.744308290898

      3   L      10             0.1687145    1.000000000000    1.000000000000

      4   D      11             0.8000000    1.000000000000

 H         

      5   S      12            18.7311370    0.033494604338
      5   S      13             2.8253944    0.234726953484
      5   S      14             0.6401217    0.813757326146

      6   S      15             0.1612778    1.000000000000

 H         

      7   S      16            18.7311370    0.033494604338
      7   S      17             2.8253944    0.234726953484
      7   S      18             0.6401217    0.813757326146

      8   S      19             0.1612778    1.000000000000

 H         

      9   S      20            18.7311370    0.033494604338
      9   S      21             2.8253944    0.234726953484
      9   S      22             0.6401217    0.813757326146

     10   S      23             0.1612778    1.000000000000

 C         

     11   S      24          3047.5248800    0.001834737132
     11   S      25           457.3695180    0.014037322813
     11   S      26           103.9486850    0.068842622264
     11   S      27            29.2101553    0.232184443216
     11   S      28             9.2866630    0.467941348435
     11   S      29             3.1639270    0.362311985337

     12   L      30             7.8682723   -0.119332419775    0.068999066591
     12   L      31             1.8812885   -0.160854151696    0.316423960957
     12   L      32             0.5442493    1.143456437840    0.744308290898

     13   L      33             0.1687145    1.000000000000    1.000000000000

     14   D      34             0.8000000    1.000000000000

 H         

     15   S      35            18.7311370    0.033494604338
     15   S      36             2.8253944    0.234726953484
     15   S      37             0.6401217    0.813757326146

     16   S      38             0.1612778    1.000000000000

 H         

     17   S      39            18.7311370    0.033494604338
     17   S      40             2.8253944    0.234726953484
     17   S      41             0.6401217    0.813757326146

     18   S      42             0.1612778    1.000000000000

 C         

     19   S      43          3047.5248800    0.001834737132
     19   S      44           457.3695180    0.014037322813
     19   S      45           103.9486850    0.068842622264
     19   S      46            29.2101553    0.232184443216
     19   S      47             9.2866630    0.467941348435
     19   S      48             3.1639270    0.362311985337

     20   L      49             7.8682723   -0.119332419775    0.068999066591
     20   L      50             1.8812885   -0.160854151696    0.316423960957
     20   L      51             0.5442493    1.143456437840    0.744308290898

     21   L      52             0.1687145    1.000000000000    1.000000000000

     22   D      53             0.8000000    1.000000000000

 H         

     23   S      54            18.7311370    0.033494604338
     23   S      55             2.8253944    0.234726953484
     23   S      56             0.6401217    0.813757326146

     24   S      57             0.1612778    1.000000000000

 H         

     25   S      58            18.7311370    0.033494604338
     25   S      59             2.8253944    0.234726953484
     25   S      60             0.6401217    0.813757326146

     26   S      61             0.1612778    1.000000000000

 C         

     27   S      62          3047.5248800    0.001834737132
     27   S      63           457.3695180    0.014037322813
     27   S      64           103.9486850    0.068842622264
     27   S      65            29.2101553    0.232184443216
     27   S      66             9.2866630    0.467941348435
     27   S      67             3.1639270    0.362311985337

     28   L      68             7.8682723   -0.119332419775    0.068999066591
     28   L      69             1.8812885   -0.160854151696    0.316423960957
     28   L      70             0.5442493    1.143456437840    0.744308290898

     29   L      71             0.1687145    1.000000000000    1.000000000000

     30   D      72             0.8000000    1.000000000000

 H         

     31   S      73            18.7311370    0.033494604338
     31   S      74             2.8253944    0.234726953484
     31   S      75             0.6401217    0.813757326146

     32   S      76             0.1612778    1.000000000000

 H         

     33   S      77            18.7311370    0.033494604338
     33   S      78             2.8253944    0.234726953484
     33   S      79             0.6401217    0.813757326146

     34   S      80             0.1612778    1.000000000000

 H         

     35   S      81            18.7311370    0.033494604338
     35   S      82             2.8253944    0.234726953484
     35   S      83             0.6401217    0.813757326146

     36   S      84             0.1612778    1.000000000000

 TOTAL NUMBER OF BASIS SET SHELLS             =   36
 NUMBER OF CARTESIAN GAUSSIAN BASIS FUNCTIONS =   80
 NUMBER OF ELECTRONS                          =   34
 CHARGE OF MOLECULE                           =    0
 SPIN MULTIPLICITY                            =    1
 NUMBER OF OCCUPIED ORBITALS (ALPHA)          =   17
 NUMBER OF OCCUPIED ORBITALS (BETA )          =   17
 TOTAL NUMBER OF ATOMS                        =   14
 THE NUCLEAR REPULSION ENERGY IS      130.8628249306

     $CONTRL OPTIONS
     ---------------
 SCFTYP=RHF          RUNTYP=OPTIMIZE     EXETYP=RUN     
 MPLEVL=       0     CITYP =NONE         CCTYP =NONE         VBTYP =NONE    
 DFTTYP=NONE         TDDFT =NONE    
 MULT  =       1     ICHARG=       0     NZVAR =      36     COORD =PRINAXIS
 PP    =NONE         RELWFN=NONE         LOCAL =NONE         NUMGRD=       F
 ISPHER=       0     NOSYM =       0     MAXIT =      30     UNITS =ANGS    
 PLTORB=       F     MOLPLT=       F     AIMPAC=       F     FRIEND=        
 NPRINT=       7     IREST =       0     GEOM  =INPUT   
 NORMF =       0     NORMP =       0     ITOL  =      20     ICUT  =       9
 INTTYP=BEST         GRDTYP=BEST         QMTTOL= 1.0E-06

     $SYSTEM OPTIONS
     ---------------
  REPLICATED MEMORY=    60000000 WORDS (ON EVERY NODE).
 DISTRIBUTED MEMDDI=           0 MILLION WORDS IN AGGREGATE,
 MEMDDI DISTRIBUTED OVER   1 PROCESSORS IS           0 WORDS/PROCESSOR.
 TOTAL MEMORY REQUESTED ON EACH PROCESSOR=    60000000 WORDS.
 TIMLIM=          10.00 MINUTES, OR       0.0 DAYS.
 PARALL= F  BALTYP=  DLB     KDIAG=    0  COREFL= F
 MXSEQ2=     300 MXSEQ3=     150  mem10=         0

          ----------------
          PROPERTIES INPUT
          ----------------

     MOMENTS            FIELD           POTENTIAL          DENSITY
 IEMOM =       1   IEFLD =       0   IEPOT =       0   IEDEN =       0
 WHERE =COMASS     WHERE =NUCLEI     WHERE =NUCLEI     WHERE =NUCLEI  
 OUTPUT=BOTH       OUTPUT=BOTH       OUTPUT=BOTH       OUTPUT=BOTH    
 IEMINT=       0   IEFINT=       0                     IEDINT=       0
                                                       MORB  =       0
          EXTRAPOLATION IN EFFECT
          SOSCF IN EFFECT
 ORBITAL PRINTING OPTION: NPREO=     1    80     2     1

     -------------------------------
     INTEGRAL TRANSFORMATION OPTIONS
     -------------------------------
     NWORD  =            0
     CUTOFF = 1.0E-09     MPTRAN =       0
     DIRTRF =       F     AOINTS =DUP     

          ----------------------
          INTEGRAL INPUT OPTIONS
          ----------------------
 NOPK  =       1 NORDER=       0 SCHWRZ=       T


 -----------------------------------------------
  STATISTICS ON AUTOMATIC COORDINATE GENERATION 
 -----------------------------------------------
  NUMBER OF USER SPECIFIED BONDS                             0
  NUMBER OF BONDS                                           13
  NUMBER OF ANGLES                                          24
  NUMBER OF TORSIONS                                        27
  NUMBER OF EXTRA COORD.                                     0
  NUMBER OF EXTRA COORD. FOR CONSTRAINTS                     0
  NUMBER OF CONSTRAINED COORD.                               0

  TOTAL NUMBER OF PRIMITIVES                                64
 -----------------------------------------------

   --- ENCODED Z MATRIX ---
 COORD  TYPE   I   J   K   L   M   N
    1      1    1   5
    2      1    1   4
    3      1    1   2
    4      1    1   3
    5      1    5   7
    6      1    5   8
    7      1    5   6
    8      1    8  11
    9      1    8  10
   10      1    8   9
   11      1   11  14
   12      1   11  13
   13      1   11  12
   14      2    1   5   7
   15      2    1   5   8
   16      2    1   5   6
   17      2    2   1   4
   18      2    2   1   3
   19      2    2   1   5
   20      2    3   1   5
   21      2    3   1   4
   22      2    4   1   5
   23      2    5   8  10
   24      2    5   8  11
   25      2    5   8   9
   26      2    6   5   8
   27      2    6   5   7
   28      2    7   5   8
   29      2    8  11  12
   30      2    8  11  13
   31      2    8  11  14
   32      2    9   8  10
   33      2    9   8  11
   34      2   10   8  11
   35      2   12  11  13
   36      2   12  11  14
   37      2   13  11  14
   38      3    1   5   8  11
   39      3    1   5   8   9
   40      3    1   5   8  10
   41      3    2   1   5   7
   42      3    2   1   5   6
   43      3    2   1   5   8
   44      3    3   1   5   7
   45      3    3   1   5   6
   46      3    3   1   5   8
   47      3    4   1   5   7
   48      3    4   1   5   6
   49      3    4   1   5   8
   50      3    5   8  11  12
   51      3    5   8  11  13
   52      3    5   8  11  14
   53      3    6   5   8  11
   54      3    6   5   8  10
   55      3    6   5   8   9
   56      3    7   5   8  11
   57      3    7   5   8  10
   58      3    7   5   8   9
   59      3    9   8  11  14
   60      3    9   8  11  13
   61      3    9   8  11  12
   62      3   10   8  11  14
   63      3   10   8  11  13
   64      3   10   8  11  12

          INDEP./SYM. INTERNAL COORDINATES
          --------------------------------
 CRD  1=   0.1482 ( 14) -0.5595 ( 15)  0.1482 ( 16)  0.1332 ( 19) -0.1977 ( 23)
           0.5595 ( 24) -0.1977 ( 25)  0.1977 ( 26) -0.1051 ( 27)  0.1977 ( 28)
          -0.1332 ( 29)  0.1051 ( 32) -0.1482 ( 33) -0.1482 ( 34)
 CRD  2=   0.3251 (  1)  0.3433 (  6)  0.3251 (  8) -0.1619 ( 14)  0.4271 ( 15)
          -0.1619 ( 16)  0.1269 ( 20)  0.1269 ( 22) -0.1018 ( 23)  0.4271 ( 24)
          -0.1018 ( 25) -0.1018 ( 26) -0.1018 ( 28)  0.1269 ( 30)  0.1269 ( 31)
          -0.1619 ( 33) -0.1619 ( 34)
 CRD  3=  -0.1887 ( 14)  0.1887 ( 16) -0.2918 ( 20)  0.2918 ( 22) -0.2918 ( 30)
           0.2918 ( 31)  0.1887 ( 33) -0.1887 ( 34) -0.4296 ( 38) -0.2284 ( 39)
          -0.2284 ( 40)  0.1091 ( 43)  0.1091 ( 50) -0.2284 ( 53) -0.2284 ( 56)
 CRD  4=  -0.1397 ( 14)  0.1397 ( 16)  0.2981 ( 23) -0.2981 ( 25) -0.2981 ( 26)
           0.2981 ( 28)  0.1397 ( 33) -0.1397 ( 34) -0.3027 ( 43) -0.2835 ( 46)
          -0.2835 ( 49) -0.3027 ( 50) -0.2835 ( 51) -0.2835 ( 52)
 CRD  5=  -0.3016 (  1) -0.2773 (  6) -0.3016 (  8) -0.1068 ( 14)  0.1865 ( 15)
          -0.1068 ( 16)  0.1567 ( 17)  0.1567 ( 18) -0.4458 ( 19)  0.1865 ( 24)
          -0.4458 ( 29) -0.1068 ( 33) -0.1068 ( 34)  0.1567 ( 35)  0.1567 ( 36)
 CRD  6=   0.4911 (  1) -0.4911 (  8)  0.1056 ( 14)  0.1056 ( 16) -0.1760 ( 17)
          -0.1760 ( 18)  0.2870 ( 19) -0.2870 ( 29) -0.1056 ( 33) -0.1056 ( 34)
           0.1760 ( 35)  0.1760 ( 36)  0.1477 ( 54) -0.1477 ( 58)
 CRD  7=   0.3022 (  1) -0.5681 (  6)  0.3022 (  8)  0.1472 ( 14)  0.1472 ( 16)
           0.1641 ( 20) -0.1719 ( 21)  0.1641 ( 22) -0.1176 ( 23) -0.1176 ( 25)
          -0.1176 ( 26) -0.1176 ( 28)  0.1641 ( 30)  0.1641 ( 31)  0.1472 ( 33)
           0.1472 ( 34) -0.1719 ( 37)  0.1299 ( 55) -0.1299 ( 57)
 CRD  8=   0.1057 ( 14) -0.1057 ( 16)  0.1639 ( 17) -0.1639 ( 18)  0.4279 ( 20)
          -0.4279 ( 22) -0.4279 ( 30)  0.4279 ( 31)  0.1057 ( 33) -0.1057 ( 34)
           0.1639 ( 35) -0.1639 ( 36)  0.1066 ( 39)  0.1066 ( 40) -0.1066 ( 53)
          -0.1066 ( 56)
 CRD  9=   0.1573 (  1) -0.1406 (  3) -0.1573 (  8)  0.1406 ( 13) -0.1139 ( 15)
          -0.4095 ( 19)  0.2799 ( 20) -0.2571 ( 21)  0.2799 ( 22)  0.1139 ( 24)
           0.4095 ( 29) -0.2799 ( 30) -0.2799 ( 31)  0.2571 ( 37)
 CRD 10=   0.2904 ( 14) -0.2904 ( 16)  0.2796 ( 23) -0.2796 ( 25)  0.2796 ( 26)
          -0.2796 ( 28)  0.2904 ( 33) -0.2904 ( 34)  0.1706 ( 39)  0.1706 ( 40)
           0.1370 ( 43)  0.1585 ( 46)  0.1585 ( 49) -0.1370 ( 50) -0.1585 ( 51)
          -0.1585 ( 52) -0.1706 ( 53) -0.1706 ( 56)
 CRD 11=  -0.1006 (  1)  0.1067 (  3) -0.1924 (  5) -0.3741 (  6) -0.1924 (  7)
          -0.1006 (  8) -0.1924 (  9) -0.1924 ( 10)  0.1067 ( 13)  0.2538 ( 15)
           0.2599 ( 19) -0.1856 ( 20)  0.1837 ( 21) -0.1856 ( 22) -0.1523 ( 23)
           0.2538 ( 24) -0.1523 ( 25) -0.1523 ( 26)  0.1439 ( 27) -0.1523 ( 28)
           0.2599 ( 29) -0.1856 ( 30) -0.1856 ( 31)  0.1439 ( 32)  0.1837 ( 37)
 CRD 12=  -0.1711 (  2)  0.1711 (  4) -0.1894 (  5)  0.1894 (  7) -0.1894 (  9)
           0.1894 ( 10) -0.1711 ( 11)  0.1711 ( 12)  0.1724 ( 17) -0.1724 ( 18)
           0.3057 ( 20) -0.3057 ( 22)  0.3057 ( 30) -0.3057 ( 31) -0.1724 ( 35)
           0.1724 ( 36) -0.2734 ( 38) -0.1530 ( 39) -0.1530 ( 40) -0.1530 ( 53)
          -0.1530 ( 56)
 CRD 13=   0.4219 (  5) -0.4219 (  7) -0.4219 (  9)  0.4219 ( 10)  0.1397 ( 39)
           0.1397 ( 40) -0.1487 ( 43) -0.1266 ( 46) -0.1266 ( 49)  0.1487 ( 50)
           0.1266 ( 51)  0.1266 ( 52) -0.1397 ( 53) -0.1397 ( 56)
 CRD 14=   0.1189 (  1)  0.3568 (  2)  0.3409 (  3)  0.3568 (  4) -0.1189 (  8)
          -0.3568 ( 11) -0.3568 ( 12) -0.3409 ( 13)  0.1393 ( 17)  0.1393 ( 18)
          -0.1366 ( 19) -0.1234 ( 20)  0.1285 ( 21) -0.1234 ( 22)  0.1366 ( 29)
           0.1234 ( 30)  0.1234 ( 31) -0.1393 ( 35) -0.1393 ( 36) -0.1285 ( 37)
 CRD 15=   0.1201 (  1)  0.3571 (  2)  0.3454 (  3)  0.3571 (  4)  0.1201 (  8)
           0.3571 ( 11)  0.3571 ( 12)  0.3454 ( 13)  0.1389 ( 17)  0.1389 ( 18)
          -0.1352 ( 19) -0.1246 ( 20)  0.1303 ( 21) -0.1246 ( 22) -0.1352 ( 29)
          -0.1246 ( 30) -0.1246 ( 31)  0.1389 ( 35)  0.1389 ( 36)  0.1303 ( 37)
 CRD 16=   0.1880 ( 14) -0.1880 ( 16) -0.1471 ( 23)  0.1471 ( 25)  0.1471 ( 26)
          -0.1471 ( 28) -0.1880 ( 33)  0.1880 ( 34) -0.1400 ( 39) -0.1400 ( 40)
          -0.1573 ( 41) -0.1573 ( 42) -0.1043 ( 43) -0.1588 ( 44) -0.1588 ( 45)
          -0.1057 ( 46) -0.1588 ( 47) -0.1588 ( 48) -0.1057 ( 49) -0.1043 ( 50)
          -0.1057 ( 51) -0.1057 ( 52) -0.1400 ( 53) -0.2748 ( 54) -0.2748 ( 55)
          -0.1400 ( 56) -0.2748 ( 57) -0.2748 ( 58) -0.1588 ( 59) -0.1588 ( 60)
          -0.1573 ( 61) -0.1588 ( 62) -0.1588 ( 63) -0.1573 ( 64)
 CRD 17=   0.2048 (  2) -0.4458 (  3)  0.2048 (  4)  0.1416 (  5)  0.1416 (  7)
          -0.1416 (  9) -0.1416 ( 10) -0.2048 ( 11) -0.2048 ( 12)  0.4458 ( 13)
          -0.1099 ( 17) -0.1099 ( 18)  0.2300 ( 21)  0.1099 ( 35)  0.1099 ( 36)
          -0.2300 ( 37) -0.1312 ( 44) -0.1052 ( 45) -0.1182 ( 46)  0.1052 ( 47)
           0.1312 ( 48)  0.1182 ( 49)  0.1182 ( 51) -0.1182 ( 52) -0.1312 ( 59)
           0.1052 ( 60) -0.1052 ( 62)  0.1312 ( 63)
 CRD 18=  -0.2149 (  2)  0.4501 (  3) -0.2149 (  4) -0.2149 ( 11) -0.2149 ( 12)
           0.4501 ( 13)  0.1143 ( 17)  0.1143 ( 18) -0.2345 ( 21)  0.1143 ( 35)
           0.1143 ( 36) -0.2345 ( 37)  0.1317 ( 44)  0.1119 ( 45)  0.1218 ( 46)
          -0.1119 ( 47) -0.1317 ( 48) -0.1218 ( 49)  0.1218 ( 51) -0.1218 ( 52)
          -0.1317 ( 59)  0.1119 ( 60) -0.1119 ( 62)  0.1317 ( 63)
 CRD 19=   0.3902 (  2) -0.3902 (  4) -0.3902 ( 11)  0.3902 ( 12)  0.2068 ( 17)
          -0.2068 ( 18)  0.2068 ( 35) -0.2068 ( 36)  0.1536 ( 41)  0.1536 ( 42)
           0.1589 ( 43) -0.1589 ( 50) -0.1536 ( 61) -0.1536 ( 64)
 CRD 20=   0.3884 (  2) -0.3884 (  4)  0.3884 ( 11) -0.3884 ( 12)  0.2096 ( 17)
          -0.2096 ( 18) -0.2096 ( 35)  0.2096 ( 36)  0.1438 ( 41)  0.1438 ( 42)
           0.1572 ( 43)  0.1572 ( 50)  0.1438 ( 61)  0.1438 ( 64)
 CRD 21=   0.1081 (  2) -0.1212 (  3)  0.1081 (  4) -0.4253 (  5) -0.4253 (  7)
           0.4253 (  9)  0.4253 ( 10) -0.1081 ( 11) -0.1081 ( 12)  0.1212 ( 13)
          -0.1483 ( 27)  0.1483 ( 32) -0.1031 ( 45)  0.1031 ( 47)  0.1407 ( 54)
          -0.1407 ( 58)  0.1031 ( 60) -0.1031 ( 62)
 CRD 22=  -0.4093 (  5)  0.1237 (  6) -0.4093 (  7) -0.4093 (  9) -0.4093 ( 10)
          -0.1835 ( 27) -0.1835 ( 32) -0.1119 ( 45)  0.1119 ( 47)  0.1289 ( 55)
          -0.1289 ( 57) -0.1119 ( 60)  0.1119 ( 62)
 CRD 23=   0.1367 (  5) -0.1367 (  7) -0.1367 (  9)  0.1367 ( 10)  0.2400 ( 41)
           0.2400 ( 42)  0.1656 ( 43)  0.2474 ( 44)  0.2474 ( 45)  0.1731 ( 46)
           0.2474 ( 47)  0.2474 ( 48)  0.1731 ( 49) -0.1656 ( 50) -0.1731 ( 51)
          -0.1731 ( 52) -0.2474 ( 59) -0.2474 ( 60) -0.2400 ( 61) -0.2474 ( 62)
          -0.2474 ( 63) -0.2400 ( 64)
 CRD 24=  -0.3582 (  5)  0.3582 (  7) -0.3582 (  9)  0.3582 ( 10)  0.1241 ( 39)
           0.1241 ( 40) -0.1587 ( 41) -0.1587 ( 42) -0.1030 ( 43) -0.1324 ( 44)
          -0.1324 ( 45) -0.1324 ( 47) -0.1324 ( 48) -0.1030 ( 50)  0.1241 ( 53)
           0.1525 ( 54)  0.1525 ( 55)  0.1241 ( 56)  0.1525 ( 57)  0.1525 ( 58)
          -0.1324 ( 59) -0.1324 ( 60) -0.1587 ( 61) -0.1324 ( 62) -0.1324 ( 63)
          -0.1587 ( 64)
 CRD 25=   0.1198 (  2)  0.2365 (  3)  0.1198 (  4) -0.1198 ( 11) -0.1198 ( 12)
          -0.2365 ( 13) -0.2004 ( 14) -0.2004 ( 16) -0.1882 ( 17) -0.1882 ( 18)
           0.1749 ( 19)  0.1335 ( 20)  0.1335 ( 22) -0.1607 ( 23) -0.1607 ( 25)
           0.1607 ( 26)  0.1607 ( 28) -0.1749 ( 29) -0.1335 ( 30) -0.1335 ( 31)
           0.2004 ( 33)  0.2004 ( 34)  0.1882 ( 35)  0.1882 ( 36)  0.1204 ( 39)
          -0.1204 ( 40) -0.1128 ( 45)  0.1128 ( 47) -0.1204 ( 53) -0.2408 ( 54)
           0.1204 ( 56)  0.2408 ( 58)  0.1128 ( 60) -0.1128 ( 62)
 CRD 26=  -0.2549 (  1)  0.1809 (  2)  0.2222 (  3)  0.1809 (  4) -0.1666 (  6)
          -0.2549 (  8)  0.1809 ( 11)  0.1809 ( 12)  0.2222 ( 13) -0.2168 ( 17)
          -0.2168 ( 18)  0.2028 ( 19)  0.1899 ( 20) -0.1850 ( 21)  0.1899 ( 22)
           0.2028 ( 29)  0.1899 ( 30)  0.1899 ( 31) -0.2168 ( 35) -0.2168 ( 36)
          -0.1850 ( 37) -0.1412 ( 55)  0.1412 ( 57)
 CRD 27=   0.3741 (  1) -0.1849 (  2) -0.1849 (  4) -0.3741 (  8)  0.1849 ( 11)
           0.1849 ( 12) -0.1189 ( 19) -0.1291 ( 20)  0.2362 ( 21) -0.1291 ( 22)
          -0.1337 ( 23) -0.1337 ( 25)  0.1337 ( 26)  0.1337 ( 28)  0.1189 ( 29)
           0.1291 ( 30)  0.1291 ( 31) -0.2362 ( 37)  0.1148 ( 41) -0.1148 ( 42)
          -0.1776 ( 45)  0.1776 ( 47)  0.1776 ( 60)  0.1148 ( 61) -0.1776 ( 62)
          -0.1148 ( 64)
 CRD 28=  -0.1591 (  2)  0.1591 (  4)  0.2426 (  5) -0.2426 (  7)  0.2426 (  9)
          -0.2426 ( 10) -0.1591 ( 11)  0.1591 ( 12)  0.1208 ( 17) -0.1208 ( 18)
          -0.1208 ( 35)  0.1208 ( 36) -0.1849 ( 44) -0.1849 ( 45) -0.1849 ( 47)
          -0.1849 ( 48)  0.2354 ( 54)  0.2354 ( 55)  0.2354 ( 57)  0.2354 ( 58)
          -0.1849 ( 59) -0.1849 ( 60) -0.1849 ( 62) -0.1849 ( 63)
 CRD 29=   0.1615 (  1) -0.1532 (  2)  0.2192 (  3) -0.1532 (  4) -0.3983 (  6)
           0.1615 (  8) -0.1532 ( 11) -0.1532 ( 12)  0.2192 ( 13)  0.2248 ( 21)
           0.1267 ( 23)  0.1267 ( 25)  0.1267 ( 26) -0.1147 ( 27)  0.1267 ( 28)
          -0.1147 ( 32)  0.2248 ( 37)  0.1017 ( 41) -0.1017 ( 42) -0.2376 ( 45)
          -0.1359 ( 46)  0.2376 ( 47)  0.1359 ( 49) -0.1359 ( 51)  0.1359 ( 52)
          -0.2376 ( 60) -0.1017 ( 61)  0.2376 ( 62)  0.1017 ( 64)
 CRD 30=   0.2562 (  2) -0.2562 (  4) -0.1377 (  5)  0.1377 (  7)  0.1377 (  9)
          -0.1377 ( 10) -0.2562 ( 11)  0.2562 ( 12) -0.1977 ( 17)  0.1977 ( 18)
          -0.1099 ( 23)  0.1099 ( 25) -0.1099 ( 26)  0.1099 ( 28) -0.1977 ( 35)
           0.1977 ( 36) -0.1550 ( 41) -0.1550 ( 42) -0.2841 ( 43)  0.1431 ( 44)
           0.1431 ( 45)  0.1431 ( 47)  0.1431 ( 48)  0.2841 ( 50) -0.1431 ( 59)
          -0.1431 ( 60)  0.1550 ( 61) -0.1431 ( 62) -0.1431 ( 63)  0.1550 ( 64)
 CRD 31=   0.2715 (  1) -0.2251 (  3) -0.1414 (  5) -0.1414 (  7) -0.2715 (  8)
           0.1414 (  9)  0.1414 ( 10)  0.2251 ( 13) -0.1100 ( 14) -0.1100 ( 16)
           0.1191 ( 17)  0.1191 ( 18)  0.2306 ( 27) -0.2306 ( 32)  0.1100 ( 33)
           0.1100 ( 34) -0.1191 ( 35) -0.1191 ( 36)  0.1342 ( 39) -0.1342 ( 40)
           0.1796 ( 45)  0.1031 ( 46) -0.1796 ( 47) -0.1031 ( 49) -0.1031 ( 51)
           0.1031 ( 52) -0.1342 ( 53) -0.2683 ( 54)  0.1342 ( 56)  0.2683 ( 58)
          -0.1796 ( 60)  0.1796 ( 62)
 CRD 32=   0.2787 (  1) -0.1853 (  3) -0.2833 (  6)  0.2787 (  8) -0.1853 ( 13)
          -0.1646 ( 14) -0.1646 ( 16)  0.1551 ( 23)  0.1551 ( 25)  0.1551 ( 26)
           0.1551 ( 28) -0.1646 ( 33) -0.1646 ( 34) -0.1308 ( 39)  0.1308 ( 40)
           0.1562 ( 44)  0.1079 ( 46) -0.1562 ( 48) -0.1079 ( 49)  0.1079 ( 51)
          -0.1079 ( 52) -0.1308 ( 53) -0.2617 ( 55)  0.1308 ( 56)  0.2617 ( 57)
          -0.1562 ( 59)  0.1562 ( 63)
 CRD 33=   0.1079 (  2) -0.2001 (  3)  0.1079 (  4)  0.1116 (  5)  0.1116 (  7)
          -0.1116 (  9) -0.1116 ( 10) -0.1079 ( 11) -0.1079 ( 12)  0.2001 ( 13)
           0.1200 ( 15)  0.1616 ( 19) -0.1632 ( 21) -0.1200 ( 24) -0.1775 ( 27)
          -0.1616 ( 29)  0.1775 ( 32)  0.1632 ( 37)  0.1353 ( 41) -0.1353 ( 42)
           0.2867 ( 44)  0.1513 ( 46) -0.2867 ( 48) -0.1513 ( 49) -0.1513 ( 51)
           0.1513 ( 52)  0.1335 ( 54) -0.1335 ( 58)  0.2867 ( 59)  0.1353 ( 61)
          -0.2867 ( 63) -0.1353 ( 64)
 CRD 34=   0.2016 (  2) -0.2016 (  4)  0.1242 (  5) -0.1242 (  7)  0.1242 (  9)
          -0.1242 ( 10)  0.2016 ( 11) -0.2016 ( 12) -0.1272 ( 14)  0.1272 ( 16)
          -0.1521 ( 17)  0.1521 ( 18)  0.1381 ( 20) -0.1381 ( 22)  0.1381 ( 30)
          -0.1381 ( 31)  0.1272 ( 33) -0.1272 ( 34)  0.1521 ( 35) -0.1521 ( 36)
          -0.2602 ( 38) -0.2653 ( 41) -0.2653 ( 42) -0.1439 ( 43)  0.1420 ( 46)
           0.1420 ( 49) -0.1439 ( 50)  0.1420 ( 51)  0.1420 ( 52) -0.2653 ( 61)
          -0.2653 ( 64)
 CRD 35=   0.1300 (  1) -0.1438 (  5)  0.2448 (  6) -0.1438 (  7)  0.1300 (  8)
          -0.1438 (  9) -0.1438 ( 10) -0.2138 ( 15) -0.1265 ( 19) -0.2138 ( 24)
           0.2219 ( 27) -0.1265 ( 29)  0.2219 ( 32) -0.1369 ( 39)  0.1369 ( 40)
          -0.1346 ( 41)  0.1346 ( 42) -0.2242 ( 44)  0.2242 ( 48) -0.1369 ( 53)
          -0.2737 ( 55)  0.1369 ( 56)  0.2737 ( 57)  0.2242 ( 59)  0.1346 ( 61)
          -0.2242 ( 63) -0.1346 ( 64)
 CRD 36=   0.1710 (  5) -0.1710 (  7) -0.1710 (  9)  0.1710 ( 10) -0.1176 ( 14)
           0.1176 ( 16)  0.1034 ( 20) -0.1034 ( 22)  0.1463 ( 23) -0.1463 ( 25)
           0.1463 ( 26) -0.1463 ( 28) -0.1034 ( 30)  0.1034 ( 31) -0.1176 ( 33)
           0.1176 ( 34) -0.2562 ( 39) -0.2562 ( 40) -0.1856 ( 41) -0.1856 ( 42)
           0.2385 ( 46)  0.2385 ( 49) -0.2385 ( 51) -0.2385 ( 52)  0.2562 ( 53)
           0.2562 ( 56)  0.1856 ( 61)  0.1856 ( 64)

 THE DETERMINANT OF THE G MATRIX IS 10**(    -9)


                     --------------------
                     INTERNAL COORDINATES
                     --------------------

                 - - ATOMS - -         COORDINATE      COORDINATE
 NO.   TYPE    I  J  K  L  M  N        (BOHR,RAD)       (ANG,DEG)
 ----------------------------------------------------------------
   1 STRETCH   1  5                     2.8880875       1.5283102
   2 STRETCH   1  4                     2.0526965       1.0862403
   3 STRETCH   1  2                     2.0515994       1.0856597
   4 STRETCH   1  3                     2.0526965       1.0862403
   5 STRETCH   5  7                     2.0549664       1.0874415
   6 STRETCH   5  8                     2.8901516       1.5294025
   7 STRETCH   5  6                     2.0549664       1.0874415
   8 STRETCH   8 11                     2.8880875       1.5283102
   9 STRETCH   8 10                     2.0549664       1.0874415
  10 STRETCH   8  9                     2.0549664       1.0874415
  11 STRETCH  11 14                     2.0526965       1.0862403
  12 STRETCH  11 13                     2.0526965       1.0862403
  13 STRETCH  11 12                     2.0515994       1.0856597
  14 BEND      1  5  7                  1.9088630     109.3697941
  15 BEND      1  5  8                  1.9730330     113.0464635
  16 BEND      1  5  6                  1.9088630     109.3697941
  17 BEND      2  1  4                  1.8792787     107.6747399
  18 BEND      2  1  3                  1.8792787     107.6747399
  19 BEND      2  1  5                  1.9427226     111.3098057
  20 BEND      3  1  5                  1.9401438     111.1620487
  21 BEND      3  1  4                  1.8793690     107.6799140
  22 BEND      4  1  5                  1.9401438     111.1620487
  23 BEND      5  8 10                  1.9073020     109.2803523
  24 BEND      5  8 11                  1.9730330     113.0464635
  25 BEND      5  8  9                  1.9073020     109.2803523
  26 BEND      6  5  8                  1.9073020     109.2803523
  27 BEND      6  5  7                  1.8547339     106.2684256
  28 BEND      7  5  8                  1.9073020     109.2803523
  29 BEND      8 11 12                  1.9427226     111.3098057
  30 BEND      8 11 13                  1.9401438     111.1620487
  31 BEND      8 11 14                  1.9401438     111.1620487
  32 BEND      9  8 10                  1.8547339     106.2684256
  33 BEND      9  8 11                  1.9088630     109.3697941
  34 BEND     10  8 11                  1.9088630     109.3697941
  35 BEND     12 11 13                  1.8792787     107.6747399
  36 BEND     12 11 14                  1.8792787     107.6747399
  37 BEND     13 11 14                  1.8793690     107.6799140
  38 TORSION   1  5  8 11               3.1415927     180.0000000
  39 TORSION   1  5  8  9              -1.0114087     -57.9494489
  40 TORSION   1  5  8 10               1.0114087      57.9494489
  41 TORSION   2  1  5  7              -1.0122839     -57.9995954
  42 TORSION   2  1  5  6               1.0122839      57.9995954
  43 TORSION   2  1  5  8               3.1415927     180.0000000
  44 TORSION   3  1  5  7               1.0826500      62.0312775
  45 TORSION   3  1  5  6               3.1072178     178.0304684
  46 TORSION   3  1  5  8              -1.0466587     -59.9691270
  47 TORSION   4  1  5  7              -3.1072178    -178.0304684
  48 TORSION   4  1  5  6              -1.0826500     -62.0312775
  49 TORSION   4  1  5  8               1.0466587      59.9691270
  50 TORSION   5  8 11 12               3.1415927     180.0000000
  51 TORSION   5  8 11 13              -1.0466587     -59.9691270
  52 TORSION   5  8 11 14               1.0466587      59.9691270
  53 TORSION   6  5  8 11              -1.0114087     -57.9494489
  54 TORSION   6  5  8 10               3.1415927     180.0000000
  55 TORSION   6  5  8  9               1.1187753      64.1011021
  56 TORSION   7  5  8 11               1.0114087      57.9494489
  57 TORSION   7  5  8 10              -1.1187753     -64.1011021
  58 TORSION   7  5  8  9               3.1415927     180.0000000
  59 TORSION   9  8 11 14              -1.0826500     -62.0312775
  60 TORSION   9  8 11 13               3.1072178     178.0304684
  61 TORSION   9  8 11 12               1.0122839      57.9995954
  62 TORSION  10  8 11 14              -3.1072178    -178.0304684
  63 TORSION  10  8 11 13               1.0826500      62.0312775
  64 TORSION  10  8 11 12              -1.0122839     -57.9995954

     ------------------------------------------
     THE POINT GROUP IS C1 , NAXIS= 0, ORDER= 1
     ------------------------------------------

     DIMENSIONS OF THE SYMMETRY SUBSPACES ARE
 A   =   80

 ..... DONE SETTING UP THE RUN .....
 STEP CPU TIME =     0.02 TOTAL CPU TIME =        0.0 (    0.0 MIN)
 TOTAL WALL CLOCK TIME=        0.0 SECONDS, CPU UTILIZATION IS 100.00%


          -----------------------------
          STATIONARY POINT LOCATION RUN
          -----------------------------

 OBTAINING INITIAL HESSIAN, HESS=GUESS   
 DIAGONAL GUESS HESSIAN IN INTERNAL COORDS IS
     1  0.3684     2  0.3489     3  0.3493     4  0.3489     5  0.3481
     6  0.3676     7  0.3481     8  0.3684     9  0.3481    10  0.3481
    11  0.3489    12  0.3489    13  0.3493    14  0.2243    15  0.2487
    16  0.2243    17  0.2038    18  0.2038    19  0.2244    20  0.2244
    21  0.2038    22  0.2244    23  0.2243    24  0.2487    25  0.2243
    26  0.2243    27  0.2037    28  0.2243    29  0.2244    30  0.2244
    31  0.2244    32  0.2037    33  0.2243    34  0.2243    35  0.2038
    36  0.2038    37  0.2038    38  0.2500    39  0.2500    40  0.2500
    41  0.2500    42  0.2500    43  0.2500    44  0.2500    45  0.2500
    46  0.2500    47  0.2500    48  0.2500    49  0.2500    50  0.2500
    51  0.2500    52  0.2500    53  0.2500    54  0.2500    55  0.2500
    56  0.2500    57  0.2500    58  0.2500    59  0.2500    60  0.2500
    61  0.2500    62  0.2500    63  0.2500    64  0.2500
 TRANSFORMING HESSIAN TO SYMMETRY COORDINATES

          PARAMETERS CONTROLLING GEOMETRY SEARCH ARE
          METHOD =QA                  UPHESS =BFGS    
          NNEG   =         0          NFRZ   =         0
          NSTEP  =       200          IFOLOW =         1
          HESS   =GUESS               RESTAR =         F
          IHREP  =         0          HSSEND =         F
          NPRT   =         0          NPUN   =         0
          OPTTOL = 1.000E-06          RMIN   = 1.500E-03
          RMAX   = 1.000E-01          RLIM   = 7.000E-02
          DXMAX  = 3.000E-01          PURIFY =         F
          MOVIE  =         F          TRUPD  =         T
          TRMAX  = 5.000E-01          TRMIN  = 5.000E-02
          ITBMAT =         5          STPT   =         F
          STSTEP = 1.000E-02          PROJCT=          T

 BEGINNING GEOMETRY SEARCH POINT NSERCH=   0 ...

 COORDINATES OF ALL ATOMS ARE (ANGS)
   ATOM   CHARGE       X              Y              Z
 ------------------------------------------------------------
 C           6.0  -1.9539985335  -0.1320217070   0.0000000000
 H           1.0  -2.7380068763   0.6189695835   0.0000000000
 H           1.0  -2.0959915904  -0.7570232844  -0.8770000000
 H           1.0  -2.0959915904  -0.7570232844   0.8770000000
 C           6.0  -0.5680056878   0.5119936901   0.0000000000
 H           1.0  -0.4700128531   1.1569947787   0.8700000000
 H           1.0  -0.4700128531   1.1569947787  -0.8700000000
 C           6.0   0.5680056878  -0.5119936901   0.0000000000
 H           1.0   0.4700128531  -1.1569947787   0.8700000000
 H           1.0   0.4700128531  -1.1569947787  -0.8700000000
 C           6.0   1.9539985335   0.1320217070   0.0000000000
 H           1.0   2.7380068763  -0.6189695835   0.0000000000
 H           1.0   2.0959915904   0.7570232844  -0.8770000000
 H           1.0   2.0959915904   0.7570232844   0.8770000000


                     --------------------
                     INTERNAL COORDINATES
                     --------------------

                 - - ATOMS - -         COORDINATE      COORDINATE
 NO.   TYPE    I  J  K  L  M  N        (BOHR,RAD)       (ANG,DEG)
 ----------------------------------------------------------------
   1 STRETCH   1  5                     2.8880875       1.5283102
   2 STRETCH   1  4                     2.0526965       1.0862403
   3 STRETCH   1  2                     2.0515994       1.0856597
   4 STRETCH   1  3                     2.0526965       1.0862403
   5 STRETCH   5  7                     2.0549664       1.0874415
   6 STRETCH   5  8                     2.8901516       1.5294025
   7 STRETCH   5  6                     2.0549664       1.0874415
   8 STRETCH   8 11                     2.8880875       1.5283102
   9 STRETCH   8 10                     2.0549664       1.0874415
  10 STRETCH   8  9                     2.0549664       1.0874415
  11 STRETCH  11 14                     2.0526965       1.0862403
  12 STRETCH  11 13                     2.0526965       1.0862403
  13 STRETCH  11 12                     2.0515994       1.0856597
  14 BEND      1  5  7                  1.9088630     109.3697941
  15 BEND      1  5  8                  1.9730330     113.0464635
  16 BEND      1  5  6                  1.9088630     109.3697941
  17 BEND      2  1  4                  1.8792787     107.6747399
  18 BEND      2  1  3                  1.8792787     107.6747399
  19 BEND      2  1  5                  1.9427226     111.3098057
  20 BEND      3  1  5                  1.9401438     111.1620487
  21 BEND      3  1  4                  1.8793690     107.6799140
  22 BEND      4  1  5                  1.9401438     111.1620487
  23 BEND      5  8 10                  1.9073020     109.2803523
  24 BEND      5  8 11                  1.9730330     113.0464635
  25 BEND      5  8  9                  1.9073020     109.2803523
  26 BEND      6  5  8                  1.9073020     109.2803523
  27 BEND      6  5  7                  1.8547339     106.2684256
  28 BEND      7  5  8                  1.9073020     109.2803523
  29 BEND      8 11 12                  1.9427226     111.3098057
  30 BEND      8 11 13                  1.9401438     111.1620487
  31 BEND      8 11 14                  1.9401438     111.1620487
  32 BEND      9  8 10                  1.8547339     106.2684256
  33 BEND      9  8 11                  1.9088630     109.3697941
  34 BEND     10  8 11                  1.9088630     109.3697941
  35 BEND     12 11 13                  1.8792787     107.6747399
  36 BEND     12 11 14                  1.8792787     107.6747399
  37 BEND     13 11 14                  1.8793690     107.6799140
  38 TORSION   1  5  8 11               3.1415927     180.0000000
  39 TORSION   1  5  8  9              -1.0114087     -57.9494489
  40 TORSION   1  5  8 10               1.0114087      57.9494489
  41 TORSION   2  1  5  7              -1.0122839     -57.9995954
  42 TORSION   2  1  5  6               1.0122839      57.9995954
  43 TORSION   2  1  5  8               3.1415927     180.0000000
  44 TORSION   3  1  5  7               1.0826500      62.0312775
  45 TORSION   3  1  5  6               3.1072178     178.0304684
  46 TORSION   3  1  5  8              -1.0466587     -59.9691270
  47 TORSION   4  1  5  7              -3.1072178    -178.0304684
  48 TORSION   4  1  5  6              -1.0826500     -62.0312775
  49 TORSION   4  1  5  8               1.0466587      59.9691270
  50 TORSION   5  8 11 12               3.1415927     180.0000000
  51 TORSION   5  8 11 13              -1.0466587     -59.9691270
  52 TORSION   5  8 11 14               1.0466587      59.9691270
  53 TORSION   6  5  8 11              -1.0114087     -57.9494489
  54 TORSION   6  5  8 10               3.1415927     180.0000000
  55 TORSION   6  5  8  9               1.1187753      64.1011021
  56 TORSION   7  5  8 11               1.0114087      57.9494489
  57 TORSION   7  5  8 10              -1.1187753     -64.1011021
  58 TORSION   7  5  8  9               3.1415927     180.0000000
  59 TORSION   9  8 11 14              -1.0826500     -62.0312775
  60 TORSION   9  8 11 13               3.1072178     178.0304684
  61 TORSION   9  8 11 12               1.0122839      57.9995954
  62 TORSION  10  8 11 14              -3.1072178    -178.0304684
  63 TORSION  10  8 11 13               1.0826500      62.0312775
  64 TORSION  10  8 11 12              -1.0122839     -57.9995954

          ********************
          1 ELECTRON INTEGRALS
          ********************
 ...... END OF ONE-ELECTRON INTEGRALS ......
 STEP CPU TIME =     0.00 TOTAL CPU TIME =        0.0 (    0.0 MIN)
 TOTAL WALL CLOCK TIME=        0.0 SECONDS, CPU UTILIZATION IS  66.67%

          -------------
          GUESS OPTIONS
          -------------
          GUESS =HUCKEL            NORB  =       0          NORDER=       0
          MIX   =       F          PRTMO =       F          PUNMO =       F
          TOLZ  = 1.0E-08          TOLE  = 1.0E-05
          SYMDEN=       F          PURIFY=       F

 INITIAL GUESS ORBITALS GENERATED BY HUCKEL   ROUTINE.
 HUCKEL GUESS REQUIRES     60242 WORDS.

 SYMMETRIES FOR INITIAL GUESS ORBITALS FOLLOW.   BOTH SET(S).
    17 ORBITALS ARE OCCUPIED (    4 CORE ORBITALS).
     5=A        6=A        7=A        8=A        9=A       10=A       11=A   
    12=A       13=A       14=A       15=A       16=A       17=A       18=A   
    19=A       20=A       21=A       22=A       23=A       24=A       25=A   
    26=A       27=A   
 ...... END OF INITIAL ORBITAL SELECTION ......
 STEP CPU TIME =     0.01 TOTAL CPU TIME =        0.0 (    0.0 MIN)
 TOTAL WALL CLOCK TIME=        0.0 SECONDS, CPU UTILIZATION IS  75.00%

                    ----------------------
                    AO INTEGRAL TECHNOLOGY
                    ----------------------
     S,P,L SHELL ROTATED AXIS INTEGRALS, REPROGRAMMED BY
        KAZUYA ISHIMURA (IMS) AND JOSE SIERRA (SYNSTAR).
     S,P,D,L SHELL ROTATED AXIS INTEGRALS PROGRAMMED BY
        KAZUYA ISHIMURA (INSTITUTE FOR MOLECULAR SCIENCE).
     S,P,D,F,G SHELL TO TOTAL QUARTET ANGULAR MOMENTUM SUM 5,
        ERIC PROGRAM BY GRAHAM FLETCHER (ELORET AND NASA ADVANCED
        SUPERCOMPUTING DIVISION, AMES RESEARCH CENTER).
     S,P,D,F,G,L SHELL GENERAL RYS QUADRATURE PROGRAMMED BY
        MICHEL DUPUIS (PACIFIC NORTHWEST NATIONAL LABORATORY).

          --------------------
          2 ELECTRON INTEGRALS
          --------------------

 THE -PK- OPTION IS OFF, THE INTEGRALS ARE NOT IN SUPERMATRIX FORM.
 STORING   15000 INTEGRALS/RECORD ON DISK, USING 12 BYTES/INTEGRAL.
 TWO ELECTRON INTEGRAL EVALUATION REQUIRES   91062 WORDS OF MEMORY.
 SCHWARZ INEQUALITY OVERHEAD:      3235 INTEGRALS, T=        0.00
 II,JST,KST,LST =  1  1  1  1 NREC =         1 INTLOC =    1
 II,JST,KST,LST =  2  1  1  1 NREC =         1 INTLOC =    2
 II,JST,KST,LST =  3  1  1  1 NREC =         1 INTLOC =   34
 II,JST,KST,LST =  4  1  1  1 NREC =         1 INTLOC =  214
 II,JST,KST,LST =  5  1  1  1 NREC =         1 INTLOC = 1189
 II,JST,KST,LST =  6  1  1  1 NREC =         1 INTLOC = 2365
 II,JST,KST,LST =  7  1  1  1 NREC =         1 INTLOC = 3802
 II,JST,KST,LST =  8  1  1  1 NREC =         1 INTLOC = 6727
 II,JST,KST,LST =  9  1  1  1 NREC =         1 INTLOC =10166
 II,JST,KST,LST = 10  1  1  1 NREC =         1 INTLOC =14124
 II,JST,KST,LST = 11  1  1  1 NREC =         2 INTLOC = 3713
 II,JST,KST,LST = 12  1  1  1 NREC =         2 INTLOC = 7843
 II,JST,KST,LST = 13  1  1  1 NREC =         3 INTLOC =14542
 II,JST,KST,LST = 14  1  1  1 NREC =         6 INTLOC = 2254
 II,JST,KST,LST = 15  1  1  1 NREC =        11 INTLOC = 1731
 II,JST,KST,LST = 16  1  1  1 NREC =        12 INTLOC =12025
 II,JST,KST,LST = 17  1  1  1 NREC =        14 INTLOC = 9480
 II,JST,KST,LST = 18  1  1  1 NREC =        16 INTLOC = 8913
 II,JST,KST,LST = 19  1  1  1 NREC =        18 INTLOC =10741
 II,JST,KST,LST = 20  1  1  1 NREC =        20 INTLOC = 3371
 II,JST,KST,LST = 21  1  1  1 NREC =        28 INTLOC = 5153
 II,JST,KST,LST = 22  1  1  1 NREC =        38 INTLOC =11365
 II,JST,KST,LST = 23  1  1  1 NREC =        58 INTLOC =11332
 II,JST,KST,LST = 24  1  1  1 NREC =        64 INTLOC = 5766
 II,JST,KST,LST = 25  1  1  1 NREC =        70 INTLOC = 7343
 II,JST,KST,LST = 26  1  1  1 NREC =        76 INTLOC =10882
 II,JST,KST,LST = 27  1  1  1 NREC =        83 INTLOC = 7085
 II,JST,KST,LST = 28  1  1  1 NREC =        86 INTLOC =14452
 II,JST,KST,LST = 29  1  1  1 NREC =       107 INTLOC = 2111
 II,JST,KST,LST = 30  1  1  1 NREC =       135 INTLOC = 1459
 II,JST,KST,LST = 31  1  1  1 NREC =       175 INTLOC =14267
 II,JST,KST,LST = 32  1  1  1 NREC =       182 INTLOC =14801
 II,JST,KST,LST = 33  1  1  1 NREC =       192 INTLOC =13588
 II,JST,KST,LST = 34  1  1  1 NREC =       204 INTLOC = 2328
 II,JST,KST,LST = 35  1  1  1 NREC =       218 INTLOC =10503
 II,JST,KST,LST = 36  1  1  1 NREC =       230 INTLOC =12977
 SCHWARZ INEQUALITY TEST SKIPPED       27482 INTEGRAL BLOCKS.
 TOTAL NUMBER OF NONZERO TWO-ELECTRON INTEGRALS =             3682520
        246 INTEGRAL RECORDS WERE STORED ON DISK FILE  8.
  ...... END OF TWO-ELECTRON INTEGRALS .....
 STEP CPU TIME =     0.46 TOTAL CPU TIME =        0.5 (    0.0 MIN)
 TOTAL WALL CLOCK TIME=        0.5 SECONDS, CPU UTILIZATION IS  98.00%

          --------------------------
                 RHF SCF CALCULATION
          --------------------------

     NUCLEAR ENERGY =       130.8628249306
     MAXIT =   30     NPUNCH=    2
     EXTRAP=T  DAMP=F  SHIFT=F  RSTRCT=F  DIIS=F  DEM=F  SOSCF=T
     DENSITY MATRIX CONV=  1.00E-08
     SOSCF WILL OPTIMIZE    1071 ORBITAL ROTATIONS, SOGTOL=   0.250
     MEMORY REQUIRED FOR RHF ITERS=     80204 WORDS.

 ITER EX DEM     TOTAL ENERGY        E CHANGE  DENSITY CHANGE     ORB. GRAD
   1  0  0     -156.9307242912  -156.9307242912   0.135267765   0.000000000
          ---------------START SECOND ORDER SCF---------------
   2  1  0     -157.2757820608    -0.3450577696   0.053844141   0.032756266
   3  2  0     -157.2950564473    -0.0192743865   0.017199907   0.012184976
   4  3  0     -157.2982961835    -0.0032397362   0.006427053   0.002332381
   5  4  0     -157.2984024290    -0.0001062455   0.001350129   0.000516076
   6  5  0     -157.2984071887    -0.0000047598   0.000236022   0.000147302
   7  6  0     -157.2984076492    -0.0000004604   0.000090404   0.000025247
   8  7  0     -157.2984076669    -0.0000000177   0.000014194   0.000006668
   9  8  0     -157.2984076680    -0.0000000012   0.000002279   0.000001170
  10  9  0     -157.2984076681    -0.0000000000   0.000000670   0.000000253
  11 10  0     -157.2984076681    -0.0000000000   0.000000129   0.000000036
  12 11  0     -157.2984076681    -0.0000000000   0.000000036   0.000000012
  13 12  0     -157.2984076681    -0.0000000000   0.000000000   0.000000003

          -----------------
          DENSITY CONVERGED
          -----------------
     TIME TO FORM FOCK OPERATORS=       0.6 SECONDS (       0.0 SEC/ITER)
     TIME TO SOLVE SCF EQUATIONS=       0.0 SECONDS (       0.0 SEC/ITER)

 FINAL RHF ENERGY IS     -157.2984076681 AFTER  13 ITERATIONS

          ------------
          EIGENVECTORS
          ------------

                      1          2          3          4          5
                  -11.2136   -11.2130   -11.2073   -11.2073    -1.0698
                     A          A          A          A          A   
    1  C  1  S    0.032068   0.037140   0.703343   0.703138  -0.080690
    2  C  1  S    0.000836   0.001247   0.020065   0.020250   0.149539
    3  C  1  X   -0.000016   0.000126   0.000025   0.000027   0.046274
    4  C  1  Y    0.000019  -0.000034  -0.000018  -0.000040   0.015183
    5  C  1  Z    0.000000   0.000000  -0.000000   0.000000   0.000000
    6  C  1  S    0.002725   0.001985  -0.010243  -0.011671   0.120227
    7  C  1  X    0.001245   0.001037  -0.000217  -0.000962   0.005753
    8  C  1  Y    0.000370   0.000723  -0.000037  -0.000096   0.002258
    9  C  1  Z    0.000000   0.000000  -0.000000   0.000000   0.000000
   10  C  1 XX   -0.000381  -0.000341  -0.001306  -0.001309   0.008541
   11  C  1 YY   -0.000221  -0.000201  -0.001318  -0.001242   0.002528
   12  C  1 ZZ   -0.000189  -0.000062  -0.001313  -0.001250   0.001585
   13  C  1 XY   -0.000155  -0.000121  -0.000011  -0.000033   0.003349
   14  C  1 XZ    0.000000   0.000000  -0.000000   0.000000   0.000000
   15  C  1 YZ    0.000000   0.000000  -0.000000   0.000000   0.000000
   16  H  2  S   -0.000109  -0.000078   0.000068   0.000103   0.041451
   17  H  2  S    0.000164  -0.000191   0.001785   0.001667   0.006324
   18  H  3  S   -0.000121  -0.000088   0.000080   0.000151   0.044683
   19  H  3  S   -0.000099   0.000307   0.001865   0.001912   0.008310
   20  H  4  S   -0.000121  -0.000088   0.000080   0.000151   0.044683
   21  H  4  S   -0.000099   0.000307   0.001865   0.001912   0.008310
   22  C  5  S    0.703326   0.703294  -0.032316  -0.037304  -0.124670
   23  C  5  S    0.020199   0.020139  -0.000967  -0.000861   0.230818
   24  C  5  X    0.000031  -0.000090  -0.000102   0.000088   0.013872
   25  C  5  Y   -0.000038  -0.000025  -0.000012   0.000037  -0.038441
   26  C  5  Z    0.000000   0.000000  -0.000000   0.000000   0.000000
   27  C  5  S   -0.009258  -0.015016   0.002973   0.003030   0.188180
   28  C  5  X    0.001056  -0.001161  -0.000703  -0.001779   0.002266
   29  C  5  Y   -0.000320   0.001443  -0.000110  -0.000836  -0.005158
   30  C  5  Z    0.000000   0.000000  -0.000000   0.000000   0.000000
   31  C  5 XX   -0.001387  -0.000959  -0.000242  -0.000208   0.008572
   32  C  5 YY   -0.001392  -0.000936  -0.000116  -0.000067   0.005654
   33  C  5 ZZ   -0.001177  -0.001034  -0.000054   0.000040   0.002339
   34  C  5 XY    0.000139  -0.000129  -0.000120  -0.000067  -0.002518
   35  C  5 XZ    0.000000   0.000000  -0.000000   0.000000   0.000000
   36  C  5 YZ    0.000000   0.000000  -0.000000   0.000000   0.000000
   37  H  6  S    0.000048   0.000266  -0.000134  -0.000059   0.068587
   38  H  6  S    0.001966   0.001939  -0.000256   0.000138   0.011310
   39  H  7  S    0.000048   0.000266  -0.000134  -0.000059   0.068587
   40  H  7  S    0.001966   0.001939  -0.000256   0.000138   0.011310
   41  C  8  S    0.703326  -0.703294  -0.032316   0.037304  -0.124670
   42  C  8  S    0.020199  -0.020139  -0.000967   0.000861   0.230818
   43  C  8  X   -0.000031  -0.000090   0.000102   0.000088  -0.013872
   44  C  8  Y    0.000038  -0.000025   0.000012   0.000037   0.038441
   45  C  8  Z    0.000000   0.000000  -0.000000   0.000000   0.000000
   46  C  8  S   -0.009258   0.015016   0.002973  -0.003030   0.188180
   47  C  8  X   -0.001056  -0.001161   0.000703  -0.001779  -0.002266
   48  C  8  Y    0.000320   0.001443   0.000110  -0.000836   0.005158
   49  C  8  Z    0.000000   0.000000  -0.000000   0.000000   0.000000
   50  C  8 XX   -0.001387   0.000959  -0.000242   0.000208   0.008572
   51  C  8 YY   -0.001392   0.000936  -0.000116   0.000067   0.005654
   52  C  8 ZZ   -0.001177   0.001034  -0.000054  -0.000040   0.002339
   53  C  8 XY    0.000139   0.000129  -0.000120   0.000067  -0.002518
   54  C  8 XZ    0.000000   0.000000  -0.000000   0.000000   0.000000
   55  C  8 YZ    0.000000   0.000000  -0.000000   0.000000   0.000000
   56  H  9  S    0.000048  -0.000266  -0.000134   0.000059   0.068587
   57  H  9  S    0.001966  -0.001939  -0.000256  -0.000138   0.011310
   58  H 10  S    0.000048  -0.000266  -0.000134   0.000059   0.068587
   59  H 10  S    0.001966  -0.001939  -0.000256  -0.000138   0.011310
   60  C 11  S    0.032068  -0.037140   0.703343  -0.703138  -0.080690
   61  C 11  S    0.000836  -0.001247   0.020065  -0.020250   0.149539
   62  C 11  X    0.000016   0.000126  -0.000025   0.000027  -0.046274
   63  C 11  Y   -0.000019  -0.000034   0.000018  -0.000040  -0.015183
   64  C 11  Z    0.000000   0.000000  -0.000000   0.000000   0.000000
   65  C 11  S    0.002725  -0.001985  -0.010243   0.011671   0.120227
   66  C 11  X   -0.001245   0.001037   0.000217  -0.000962  -0.005753
   67  C 11  Y   -0.000370   0.000723   0.000037  -0.000096  -0.002258
   68  C 11  Z    0.000000   0.000000  -0.000000   0.000000   0.000000
   69  C 11 XX   -0.000381   0.000341  -0.001306   0.001309   0.008541
   70  C 11 YY   -0.000221   0.000201  -0.001318   0.001242   0.002528
   71  C 11 ZZ   -0.000189   0.000062  -0.001313   0.001250   0.001585
   72  C 11 XY   -0.000155   0.000121  -0.000011   0.000033   0.003349
   73  C 11 XZ    0.000000   0.000000  -0.000000   0.000000   0.000000
   74  C 11 YZ    0.000000   0.000000  -0.000000   0.000000   0.000000
   75  H 12  S   -0.000109   0.000078   0.000068  -0.000103   0.041451
   76  H 12  S    0.000164   0.000191   0.001785  -0.001667   0.006324
   77  H 13  S   -0.000121   0.000088   0.000080  -0.000151   0.044683
   78  H 13  S   -0.000099  -0.000307   0.001865  -0.001912   0.008310
   79  H 14  S   -0.000121   0.000088   0.000080  -0.000151   0.044683
   80  H 14  S   -0.000099  -0.000307   0.001865  -0.001912   0.008310

                      6          7          8          9         10
                   -0.9810    -0.8624    -0.7897    -0.6388    -0.5848
                     A          A          A          A          A   
    1  C  1  S   -0.125228  -0.110877  -0.050664   0.000000  -0.002681
    2  C  1  S    0.231900   0.205401   0.095678   0.000000   0.004212
    3  C  1  X    0.020336  -0.079252  -0.076745   0.000000   0.067193
    4  C  1  Y    0.014173  -0.024551  -0.078638   0.000000  -0.244654
    5  C  1  Z   -0.000000   0.000000  -0.000000   0.166152  -0.000000
    6  C  1  S    0.219003   0.235324   0.115151   0.000000   0.009976
    7  C  1  X    0.001575  -0.022623  -0.025622   0.000000   0.034272
    8  C  1  Y    0.001226  -0.009438  -0.026395   0.000000  -0.124328
    9  C  1  Z   -0.000000   0.000000  -0.000000   0.073900  -0.000000
   10  C  1 XX    0.006638  -0.003483  -0.006039   0.000000  -0.009528
   11  C  1 YY    0.005647   0.007237   0.002879   0.000000  -0.005146
   12  C  1 ZZ    0.004908   0.009177   0.009007   0.000000   0.015156
   13  C  1 XY    0.000895  -0.006728  -0.007852   0.000000   0.008797
   14  C  1 XZ   -0.000000   0.000000  -0.000000   0.002316  -0.000000
   15  C  1 YZ   -0.000000   0.000000  -0.000000  -0.009866  -0.000000
   16  H  2  S    0.081397   0.100110   0.040732   0.000000  -0.136220
   17  H  2  S    0.019551   0.037056   0.017449   0.000000  -0.103141
   18  H  3  S    0.078618   0.092425   0.068971  -0.081327   0.085376
   19  H  3  S    0.018129   0.031068   0.032843  -0.057740   0.061948
   20  H  4  S    0.078618   0.092425   0.068971   0.081327   0.085376
   21  H  4  S    0.018129   0.031068   0.032843   0.057740   0.061948
   22  C  5  S   -0.069584   0.074373   0.102013   0.000000   0.001291
   23  C  5  S    0.129074  -0.138857  -0.192480   0.000000   0.001461
   24  C  5  X   -0.094120  -0.108904   0.006767   0.000000   0.136393
   25  C  5  Y    0.000187  -0.002269  -0.144863   0.000000  -0.176729
   26  C  5  Z   -0.000000   0.000000  -0.000000   0.256538  -0.000000
   27  C  5  S    0.121186  -0.156092  -0.235292   0.000000  -0.012681
   28  C  5  X   -0.019128  -0.029189  -0.002705   0.000000   0.055925
   29  C  5  Y    0.002371  -0.003980  -0.054139   0.000000  -0.086347
   30  C  5  Z   -0.000000   0.000000  -0.000000   0.119600  -0.000000
   31  C  5 XX    0.004722   0.006183   0.008347   0.000000   0.004344
   32  C  5 YY    0.000582  -0.006195  -0.000562   0.000000   0.002945
   33  C  5 ZZ    0.002538  -0.005864  -0.015998   0.000000  -0.009686
   34  C  5 XY    0.009984   0.010637  -0.005691   0.000000  -0.005182
   35  C  5 XZ   -0.000000   0.000000  -0.000000   0.003932  -0.000000
   36  C  5 YZ   -0.000000   0.000000  -0.000000   0.013876  -0.000000
   37  H  6  S    0.041993  -0.058852  -0.123648   0.124039  -0.057217
   38  H  6  S    0.008404  -0.018300  -0.054328   0.084285  -0.040142
   39  H  7  S    0.041993  -0.058852  -0.123648  -0.124039  -0.057217
   40  H  7  S    0.008404  -0.018300  -0.054328  -0.084285  -0.040142
   41  C  8  S    0.069584   0.074373  -0.102013   0.000000   0.001291
   42  C  8  S   -0.129074  -0.138857   0.192480   0.000000   0.001461
   43  C  8  X   -0.094120   0.108904   0.006767   0.000000  -0.136393
   44  C  8  Y    0.000187   0.002269  -0.144863   0.000000   0.176729
   45  C  8  Z   -0.000000   0.000000  -0.000000   0.256538  -0.000000
   46  C  8  S   -0.121186  -0.156092   0.235292   0.000000  -0.012681
   47  C  8  X   -0.019128   0.029189  -0.002705   0.000000  -0.055925
   48  C  8  Y    0.002371   0.003980  -0.054139   0.000000   0.086347
   49  C  8  Z   -0.000000   0.000000  -0.000000   0.119600  -0.000000
   50  C  8 XX   -0.004722   0.006183  -0.008347   0.000000   0.004344
   51  C  8 YY   -0.000582  -0.006195   0.000562   0.000000   0.002945
   52  C  8 ZZ   -0.002538  -0.005864   0.015998   0.000000  -0.009686
   53  C  8 XY   -0.009984   0.010637   0.005691   0.000000  -0.005182
   54  C  8 XZ   -0.000000   0.000000  -0.000000  -0.003932  -0.000000
   55  C  8 YZ   -0.000000   0.000000  -0.000000  -0.013876  -0.000000
   56  H  9  S   -0.041993  -0.058852   0.123648   0.124039  -0.057217
   57  H  9  S   -0.008404  -0.018300   0.054328   0.084285  -0.040142
   58  H 10  S   -0.041993  -0.058852   0.123648  -0.124039  -0.057217
   59  H 10  S   -0.008404  -0.018300   0.054328  -0.084285  -0.040142
   60  C 11  S    0.125228  -0.110877   0.050664   0.000000  -0.002681
   61  C 11  S   -0.231900   0.205401  -0.095678   0.000000   0.004212
   62  C 11  X    0.020336   0.079252  -0.076745   0.000000  -0.067193
   63  C 11  Y    0.014173   0.024551  -0.078638   0.000000   0.244654
   64  C 11  Z   -0.000000   0.000000  -0.000000   0.166152  -0.000000
   65  C 11  S   -0.219003   0.235324  -0.115151   0.000000   0.009976
   66  C 11  X    0.001575   0.022623  -0.025622   0.000000  -0.034272
   67  C 11  Y    0.001226   0.009438  -0.026395   0.000000   0.124328
   68  C 11  Z   -0.000000   0.000000  -0.000000   0.073900  -0.000000
   69  C 11 XX   -0.006638  -0.003483   0.006039   0.000000  -0.009528
   70  C 11 YY   -0.005647   0.007237  -0.002879   0.000000  -0.005146
   71  C 11 ZZ   -0.004908   0.009177  -0.009007   0.000000   0.015156
   72  C 11 XY   -0.000895  -0.006728   0.007852   0.000000   0.008797
   73  C 11 XZ   -0.000000   0.000000  -0.000000  -0.002316  -0.000000
   74  C 11 YZ   -0.000000   0.000000  -0.000000   0.009866  -0.000000
   75  H 12  S   -0.081397   0.100110  -0.040732   0.000000  -0.136220
   76  H 12  S   -0.019551   0.037056  -0.017449   0.000000  -0.103141
   77  H 13  S   -0.078618   0.092425  -0.068971  -0.081327   0.085376
   78  H 13  S   -0.018129   0.031068  -0.032843  -0.057740   0.061948
   79  H 14  S   -0.078618   0.092425  -0.068971   0.081327   0.085376
   80  H 14  S   -0.018129   0.031068  -0.032843   0.057740   0.061948

                     11         12         13         14         15
                   -0.5742    -0.5687    -0.5153    -0.4966    -0.4685
                     A          A          A          A          A   
    1  C  1  S    0.004998  -0.000000  -0.003610  -0.000000  -0.022167
    2  C  1  S   -0.005990  -0.000000   0.012020  -0.000000   0.044346
    3  C  1  X    0.274470  -0.000000   0.050777  -0.000000   0.205679
    4  C  1  Y   -0.086565  -0.000000   0.284680  -0.000000   0.158343
    5  C  1  Z    0.000000  -0.273805  -0.000000   0.261316  -0.000000
    6  C  1  S   -0.023691  -0.000000  -0.000734  -0.000000   0.075395
    7  C  1  X    0.131899  -0.000000   0.017005  -0.000000   0.107211
    8  C  1  Y   -0.048321  -0.000000   0.155779  -0.000000   0.089887
    9  C  1  Z    0.000000  -0.142067  -0.000000   0.150964  -0.000000
   10  C  1 XX    0.002598  -0.000000   0.019117  -0.000000   0.014995
   11  C  1 YY   -0.008197  -0.000000  -0.000733  -0.000000  -0.006423
   12  C  1 ZZ    0.001938  -0.000000  -0.020200  -0.000000  -0.012439
   13  C  1 XY    0.019257  -0.000000  -0.009573  -0.000000   0.004200
   14  C  1 XZ    0.000000   0.002157  -0.000000  -0.009267  -0.000000
   15  C  1 YZ    0.000000   0.019772  -0.000000  -0.024876  -0.000000
   16  H  2  S   -0.170419  -0.000000   0.118722  -0.000000  -0.002674
   17  H  2  S   -0.132410  -0.000000   0.101613  -0.000000  -0.007513
   18  H  3  S    0.006146   0.142483  -0.112383  -0.150436  -0.065866
   19  H  3  S    0.006212   0.109601  -0.097336  -0.135851  -0.075971
   20  H  4  S    0.006146  -0.142483  -0.112383   0.150436  -0.065866
   21  H  4  S    0.006212  -0.109601  -0.097336   0.135851  -0.075971
   22  C  5  S   -0.028943  -0.000000   0.004862  -0.000000  -0.012950
   23  C  5  S    0.055626  -0.000000  -0.002752  -0.000000   0.031397
   24  C  5  X   -0.149751  -0.000000  -0.142081  -0.000000  -0.144328
   25  C  5  Y   -0.140817  -0.000000  -0.129897  -0.000000  -0.248713
   26  C  5  Z    0.000000  -0.152004  -0.000000  -0.175267  -0.000000
   27  C  5  S    0.086282  -0.000000  -0.038615  -0.000000   0.032143
   28  C  5  X   -0.064125  -0.000000  -0.080605  -0.000000  -0.079737
   29  C  5  Y   -0.068964  -0.000000  -0.068961  -0.000000  -0.142612
   30  C  5  Z    0.000000  -0.078396  -0.000000  -0.104173  -0.000000
   31  C  5 XX    0.000657  -0.000000   0.011850  -0.000000   0.025931
   32  C  5 YY    0.003500  -0.000000  -0.002430  -0.000000  -0.010647
   33  C  5 ZZ   -0.006504  -0.000000  -0.010783  -0.000000  -0.019447
   34  C  5 XY    0.008217  -0.000000  -0.000604  -0.000000   0.003046
   35  C  5 XZ    0.000000   0.006547  -0.000000  -0.010071  -0.000000
   36  C  5 YZ    0.000000  -0.011499  -0.000000  -0.015388  -0.000000
   37  H  6  S   -0.034421  -0.076875  -0.063217  -0.097827  -0.106298
   38  H  6  S   -0.030898  -0.056839  -0.049039  -0.084495  -0.110375
   39  H  7  S   -0.034421   0.076875  -0.063217   0.097827  -0.106298
   40  H  7  S   -0.030898   0.056839  -0.049039   0.084495  -0.110375
   41  C  8  S    0.028943  -0.000000  -0.004862  -0.000000  -0.012950
   42  C  8  S   -0.055626  -0.000000   0.002752  -0.000000   0.031397
   43  C  8  X   -0.149751  -0.000000  -0.142081  -0.000000   0.144328
   44  C  8  Y   -0.140817  -0.000000  -0.129897  -0.000000   0.248713
   45  C  8  Z    0.000000   0.152004  -0.000000  -0.175267  -0.000000
   46  C  8  S   -0.086282  -0.000000   0.038615  -0.000000   0.032143
   47  C  8  X   -0.064125  -0.000000  -0.080605  -0.000000   0.079737
   48  C  8  Y   -0.068964  -0.000000  -0.068961  -0.000000   0.142612
   49  C  8  Z    0.000000   0.078396  -0.000000  -0.104173  -0.000000
   50  C  8 XX   -0.000657  -0.000000  -0.011850  -0.000000   0.025931
   51  C  8 YY   -0.003500  -0.000000   0.002430  -0.000000  -0.010647
   52  C  8 ZZ    0.006504  -0.000000   0.010783  -0.000000  -0.019447
   53  C  8 XY   -0.008217  -0.000000   0.000604  -0.000000   0.003046
   54  C  8 XZ    0.000000   0.006547  -0.000000   0.010071  -0.000000
   55  C  8 YZ    0.000000  -0.011499  -0.000000   0.015388  -0.000000
   56  H  9  S    0.034421   0.076875   0.063217  -0.097827  -0.106298
   57  H  9  S    0.030898   0.056839   0.049039  -0.084495  -0.110375
   58  H 10  S    0.034421  -0.076875   0.063217   0.097827  -0.106298
   59  H 10  S    0.030898  -0.056839   0.049039   0.084495  -0.110375
   60  C 11  S   -0.004998  -0.000000   0.003610  -0.000000  -0.022167
   61  C 11  S    0.005990  -0.000000  -0.012020  -0.000000   0.044346
   62  C 11  X    0.274470  -0.000000   0.050777  -0.000000  -0.205679
   63  C 11  Y   -0.086565  -0.000000   0.284680  -0.000000  -0.158343
   64  C 11  Z    0.000000   0.273805  -0.000000   0.261316  -0.000000
   65  C 11  S    0.023691  -0.000000   0.000734  -0.000000   0.075395
   66  C 11  X    0.131899  -0.000000   0.017005  -0.000000  -0.107211
   67  C 11  Y   -0.048321  -0.000000   0.155779  -0.000000  -0.089887
   68  C 11  Z    0.000000   0.142067  -0.000000   0.150964  -0.000000
   69  C 11 XX   -0.002598  -0.000000  -0.019117  -0.000000   0.014995
   70  C 11 YY    0.008197  -0.000000   0.000733  -0.000000  -0.006423
   71  C 11 ZZ   -0.001938  -0.000000   0.020200  -0.000000  -0.012439
   72  C 11 XY   -0.019257  -0.000000   0.009573  -0.000000   0.004200
   73  C 11 XZ    0.000000   0.002157  -0.000000   0.009267  -0.000000
   74  C 11 YZ    0.000000   0.019772  -0.000000   0.024876  -0.000000
   75  H 12  S    0.170419  -0.000000  -0.118722  -0.000000  -0.002674
   76  H 12  S    0.132410  -0.000000  -0.101613  -0.000000  -0.007513
   77  H 13  S   -0.006146  -0.142483   0.112383  -0.150436  -0.065866
   78  H 13  S   -0.006212  -0.109601   0.097336  -0.135851  -0.075971
   79  H 14  S   -0.006146   0.142483   0.112383   0.150436  -0.065866
   80  H 14  S   -0.006212   0.109601   0.097336   0.135851  -0.075971

                     16         17         18         19         20
                   -0.4625    -0.4558     0.2329     0.2622     0.2855
                     A          A          A          A          A   
    1  C  1  S   -0.000000  -0.010959  -0.053596  -0.107859   0.000000
    2  C  1  S   -0.000000   0.023403   0.034046   0.073972   0.000000
    3  C  1  X   -0.000000   0.212949  -0.079314  -0.048818   0.000000
    4  C  1  Y   -0.000000  -0.086902  -0.053845  -0.009680   0.000000
    5  C  1  Z   -0.137959  -0.000000  -0.000000  -0.000000  -0.159849
    6  C  1  S   -0.000000   0.026644   0.999303   1.927009   0.000000
    7  C  1  X   -0.000000   0.125810  -0.338108  -0.247943   0.000000
    8  C  1  Y   -0.000000  -0.062296  -0.308655  -0.036760   0.000000
    9  C  1  Z   -0.087053  -0.000000  -0.000000  -0.000000  -0.535139
   10  C  1 XX   -0.000000  -0.008015  -0.003437  -0.006349   0.000000
   11  C  1 YY   -0.000000  -0.000892  -0.002673  -0.008836   0.000000
   12  C  1 ZZ   -0.000000   0.006940  -0.007990  -0.007687   0.000000
   13  C  1 XY   -0.000000   0.021820   0.005772   0.003386   0.000000
   14  C  1 XZ    0.007752  -0.000000  -0.000000  -0.000000  -0.005476
   15  C  1 YZ    0.017917  -0.000000  -0.000000  -0.000000  -0.003886
   16  H  2  S   -0.000000  -0.150747  -0.008963   0.001814   0.000000
   17  H  2  S   -0.000000  -0.147997  -0.457856  -0.861562   0.000000
   18  H  3  S    0.089926   0.032822   0.007465   0.003204  -0.013852
   19  H  3  S    0.095953   0.032553  -0.554925  -0.781364  -0.690151
   20  H  4  S   -0.089926   0.032822   0.007465   0.003204   0.013852
   21  H  4  S   -0.095953   0.032553  -0.554925  -0.781364   0.690151
   22  C  5  S   -0.000000   0.014184  -0.064556  -0.009501   0.000000
   23  C  5  S   -0.000000  -0.028987   0.045814   0.002597   0.000000
   24  C  5  X   -0.000000  -0.279472   0.004501   0.039973   0.000000
   25  C  5  Y   -0.000000   0.180319   0.110151   0.001502   0.000000
   26  C  5  Z    0.266317  -0.000000  -0.000000  -0.000000  -0.184355
   27  C  5  S   -0.000000  -0.045698   1.176854   0.273928   0.000000
   28  C  5  X   -0.000000  -0.156342   0.034457   0.474223   0.000000
   29  C  5  Y   -0.000000   0.099994   0.570944  -0.080680   0.000000
   30  C  5  Z    0.168098  -0.000000  -0.000000  -0.000000  -0.570493
   31  C  5 XX   -0.000000  -0.004103  -0.006020   0.009322   0.000000
   32  C  5 YY   -0.000000  -0.002050   0.000918  -0.004921   0.000000
   33  C  5 ZZ   -0.000000   0.008769  -0.008552  -0.005676   0.000000
   34  C  5 XY   -0.000000   0.022570  -0.001211   0.004605   0.000000
   35  C  5 XZ    0.003107  -0.000000  -0.000000  -0.000000   0.002293
   36  C  5 YZ    0.033503  -0.000000  -0.000000  -0.000000   0.009209
   37  H  6  S    0.165377   0.047461   0.013277  -0.009354   0.032108
   38  H  6  S    0.169791   0.054669  -0.734894  -0.104145   0.831393
   39  H  7  S   -0.165377   0.047461   0.013277  -0.009354  -0.032108
   40  H  7  S   -0.169791   0.054669  -0.734894  -0.104145  -0.831393
   41  C  8  S   -0.000000   0.014184  -0.064556   0.009501   0.000000
   42  C  8  S   -0.000000  -0.028987   0.045814  -0.002597   0.000000
   43  C  8  X   -0.000000   0.279472  -0.004501   0.039973   0.000000
   44  C  8  Y   -0.000000  -0.180319  -0.110151   0.001502   0.000000
   45  C  8  Z   -0.266317  -0.000000  -0.000000  -0.000000  -0.184355
   46  C  8  S   -0.000000  -0.045698   1.176854  -0.273928   0.000000
   47  C  8  X   -0.000000   0.156342  -0.034457   0.474223   0.000000
   48  C  8  Y   -0.000000  -0.099994  -0.570944  -0.080680   0.000000
   49  C  8  Z   -0.168098  -0.000000  -0.000000  -0.000000  -0.570493
   50  C  8 XX   -0.000000  -0.004103  -0.006020  -0.009322   0.000000
   51  C  8 YY   -0.000000  -0.002050   0.000918   0.004921   0.000000
   52  C  8 ZZ   -0.000000   0.008769  -0.008552   0.005676   0.000000
   53  C  8 XY   -0.000000   0.022570  -0.001211  -0.004605   0.000000
   54  C  8 XZ    0.003107  -0.000000  -0.000000  -0.000000  -0.002293
   55  C  8 YZ    0.033503  -0.000000  -0.000000  -0.000000  -0.009209
   56  H  9  S   -0.165377   0.047461   0.013277   0.009354   0.032108
   57  H  9  S   -0.169791   0.054669  -0.734894   0.104145   0.831393
   58  H 10  S    0.165377   0.047461   0.013277   0.009354  -0.032108
   59  H 10  S    0.169791   0.054669  -0.734894   0.104145  -0.831393
   60  C 11  S   -0.000000  -0.010959  -0.053596   0.107859   0.000000
   61  C 11  S   -0.000000   0.023403   0.034046  -0.073972   0.000000
   62  C 11  X   -0.000000  -0.212949   0.079314  -0.048818   0.000000
   63  C 11  Y   -0.000000   0.086902   0.053845  -0.009680   0.000000
   64  C 11  Z    0.137959  -0.000000  -0.000000  -0.000000  -0.159849
[...]
   15  C  1 YZ   -0.009549   0.010506
   16  H  2  S   -0.000000   0.000000
   17  H  2  S   -0.000005   0.000004
   18  H  3  S   -0.037442   0.046706
   19  H  3  S   -0.968149   0.423782
   20  H  4  S    0.037442  -0.046706
   21  H  4  S    0.968149  -0.423786
   22  C  5  S    0.000000  -0.000000
   23  C  5  S   -0.000000   0.000000
   24  C  5  X   -0.000000   0.000000
   25  C  5  Y   -0.000000  -0.000000
   26  C  5  Z    0.142882   0.215348
   27  C  5  S   -0.000002   0.000004
   28  C  5  X   -0.000001   0.000000
   29  C  5  Y   -0.000002   0.000000
   30  C  5  Z    0.781058   1.264401
   31  C  5 XX    0.000000  -0.000000
   32  C  5 YY   -0.000000   0.000000
   33  C  5 ZZ    0.000000   0.000000
   34  C  5 XY   -0.000000   0.000000
   35  C  5 XZ    0.019724  -0.017132
   36  C  5 YZ   -0.011050  -0.002577
   37  H  6  S   -0.032486  -0.027759
   38  H  6  S   -0.797467  -1.172609
   39  H  7  S    0.032487   0.027759
   40  H  7  S    0.797471   1.172606
   41  C  8  S   -0.000000   0.000000
   42  C  8  S    0.000000  -0.000000
   43  C  8  X    0.000000   0.000000
   44  C  8  Y    0.000000  -0.000000
   45  C  8  Z    0.142882  -0.215348
   46  C  8  S    0.000000  -0.000004
   47  C  8  X    0.000001  -0.000000
   48  C  8  Y    0.000002  -0.000000
   49  C  8  Z    0.781058  -1.264401
   50  C  8 XX   -0.000000   0.000000
   51  C  8 YY   -0.000000  -0.000000
   52  C  8 ZZ    0.000000  -0.000000
   53  C  8 XY   -0.000000  -0.000000
   54  C  8 XZ   -0.019724  -0.017132
   55  C  8 YZ    0.011050  -0.002577
   56  H  9  S   -0.032486   0.027759
   57  H  9  S   -0.797468   1.172609
   58  H 10  S    0.032487  -0.027759
   59  H 10  S    0.797470  -1.172607
   60  C 11  S   -0.000000  -0.000000
   61  C 11  S    0.000000   0.000000
   62  C 11  X    0.000001   0.000000
   63  C 11  Y   -0.000000  -0.000001
   64  C 11  Z   -0.147838  -0.097819
   65  C 11  S    0.000001   0.000001
   66  C 11  X    0.000003  -0.000000
   67  C 11  Y   -0.000001  -0.000003
   68  C 11  Z   -1.031766  -0.150670
   69  C 11 XX   -0.000000  -0.000000
   70  C 11 YY   -0.000000   0.000000
   71  C 11 ZZ    0.000000   0.000000
   72  C 11 XY    0.000000   0.000000
   73  C 11 XZ   -0.007630   0.018685
   74  C 11 YZ    0.009549   0.010506
   75  H 12  S   -0.000000  -0.000000
   76  H 12  S   -0.000003  -0.000003
   77  H 13  S   -0.037442  -0.046706
   78  H 13  S   -0.968149  -0.423782
   79  H 14  S    0.037442   0.046706
   80  H 14  S    0.968149   0.423786

     ----------------------------------------------------------------
     PROPERTY VALUES FOR THE RHF   SELF-CONSISTENT FIELD WAVEFUNCTION
     ----------------------------------------------------------------

          -----------------
          ENERGY COMPONENTS
          -----------------

         WAVEFUNCTION NORMALIZATION =       1.0000000000

                ONE ELECTRON ENERGY =    -469.6620246549
                TWO ELECTRON ENERGY =     181.5218506678
           NUCLEAR REPULSION ENERGY =     130.8417644086
                                      ------------------
                       TOTAL ENERGY =    -157.2984095785

 ELECTRON-ELECTRON POTENTIAL ENERGY =     181.5218506678
  NUCLEUS-ELECTRON POTENTIAL ENERGY =    -626.9042319099
   NUCLEUS-NUCLEUS POTENTIAL ENERGY =     130.8417644086
                                      ------------------
             TOTAL POTENTIAL ENERGY =    -314.5406168335
               TOTAL KINETIC ENERGY =     157.2422072550
                 VIRIAL RATIO (V/T) =       2.0003574252

          ---------------------------------------
          MULLIKEN AND LOWDIN POPULATION ANALYSES
          ---------------------------------------

     ATOMIC MULLIKEN POPULATION IN EACH MOLECULAR ORBITAL

                      1          2          3          4          5

                  2.000000   2.000000   2.000000   2.000000   2.000000

    1             0.002514   0.003062   0.996902   0.995984   0.266249
    2             0.000004  -0.000005   0.000253   0.000238   0.015382
    3            -0.000003   0.000007   0.000264   0.000275   0.018889
    4            -0.000003   0.000007   0.000264   0.000275   0.018889
    5             0.996845   0.996437   0.002322   0.003227   0.594934
    6             0.000322   0.000246  -0.000004   0.000002   0.042828
    7             0.000322   0.000246  -0.000004   0.000002   0.042828
    8             0.996845   0.996437   0.002322   0.003227   0.594934
    9             0.000322   0.000246  -0.000004   0.000002   0.042828
   10             0.000322   0.000246  -0.000004   0.000002   0.042828
   11             0.002514   0.003062   0.996907   0.995979   0.266249
   12             0.000004  -0.000005   0.000253   0.000238   0.015382
   13            -0.000003   0.000007   0.000264   0.000275   0.018889
   14            -0.000003   0.000007   0.000264   0.000275   0.018889

                      6          7          8          9         10

                  2.000000   2.000000   2.000000   2.000000   2.000000

    1             0.563862   0.455969   0.167484   0.184438   0.397984
    2             0.059796   0.088220   0.013570   0.000000   0.150540
    3             0.054839   0.072463   0.042515   0.058013   0.057143
    4             0.054839   0.072463   0.042515   0.058013   0.057143
    5             0.236924   0.254753   0.474765   0.439374   0.286431
    6             0.014870   0.028066   0.129576   0.130081   0.025380
    7             0.014870   0.028066   0.129576   0.130081   0.025380
    8             0.236924   0.254753   0.474765   0.439374   0.286431
    9             0.014870   0.028066   0.129576   0.130081   0.025380
   10             0.014870   0.028066   0.129576   0.130081   0.025380
   11             0.563862   0.455969   0.167484   0.184438   0.397984
   12             0.059796   0.088220   0.013570   0.000000   0.150540
   13             0.054839   0.072463   0.042515   0.058013   0.057143
   14             0.054839   0.072463   0.042515   0.058013   0.057143

                     11         12         13         14         15

                  2.000000   2.000000   2.000000   2.000000   2.000000

    1             0.479992   0.453826   0.449525   0.363629   0.332668
    2             0.234952   0.000000   0.104736   0.000000   0.000761
    3             0.000316   0.159584   0.097261   0.168288   0.041219
    4             0.000316   0.159584   0.097261   0.168288   0.041219
    5             0.260528   0.138561   0.194714   0.163611   0.396768
    6             0.011948   0.044223   0.028251   0.068091   0.093682
    7             0.011948   0.044223   0.028251   0.068092   0.093682
    8             0.260528   0.138561   0.194714   0.163611   0.396768
    9             0.011948   0.044223   0.028251   0.068091   0.093682
   10             0.011948   0.044223   0.028251   0.068092   0.093682
   11             0.479992   0.453826   0.449525   0.363629   0.332668
   12             0.234952   0.000000   0.104736   0.000000   0.000761
   13             0.000316   0.159584   0.097261   0.168288   0.041219
   14             0.000316   0.159584   0.097261   0.168288   0.041219

                     16         17

                  2.000000   2.000000

    1             0.097707   0.266859
    2             0.000000   0.170741
    3             0.065033   0.007761
    4             0.065033   0.007761
    5             0.355401   0.504650
    6             0.208413   0.021114
    7             0.208413   0.021114
    8             0.355401   0.504650
    9             0.208413   0.021114
   10             0.208413   0.021114
   11             0.097707   0.266859
   12             0.000000   0.170741
   13             0.065033   0.007761
   14             0.065033   0.007761

               ----- POPULATIONS IN EACH AO -----
                             MULLIKEN      LOWDIN
              1  C  1  S      1.99663     1.98096
              2  C  1  S      0.62826     0.34983
              3  C  1  X      0.68059     0.62092
              4  C  1  Y      0.68836     0.62311
              5  C  1  Z      0.69217     0.62548
              6  C  1  S      0.64441     0.33006
              7  C  1  X      0.30348     0.42144
              8  C  1  Y      0.37512     0.48466
              9  C  1  Z      0.38917     0.49991
             10  C  1 XX      0.00999     0.15435
             11  C  1 YY      0.00581     0.14724
             12  C  1 ZZ      0.01390     0.15492
             13  C  1 XY      0.00256     0.02176
             14  C  1 XZ      0.01570     0.00544
             15  C  1 YZ      0.03251     0.02393
             16  H  2  S      0.52754     0.49381
             17  H  2  S      0.31165     0.35690
             18  H  3  S      0.52763     0.49444
             19  H  3  S      0.31624     0.35952
             20  H  4  S      0.52763     0.49444
             21  H  4  S      0.31624     0.35952
             22  C  5  S      1.99681     1.97978
             23  C  5  S      0.62839     0.34534
             24  C  5  X      0.67001     0.61209
             25  C  5  Y      0.67696     0.61532
             26  C  5  Z      0.69159     0.62373
             27  C  5  S      0.61068     0.31089
             28  C  5  X      0.24620     0.36584
             29  C  5  Y      0.31745     0.43165
             30  C  5  Z      0.38315     0.48164
             31  C  5 XX      0.00965     0.15407
             32  C  5 YY      0.00893     0.14526
             33  C  5 ZZ      0.01261     0.15300
             34  C  5 XY      0.00315     0.01966
             35  C  5 XZ      0.01905     0.00656
             36  C  5 YZ      0.02561     0.03067
             37  H  6  S      0.53118     0.50326
             38  H  6  S      0.31591     0.35767
             39  H  7  S      0.53118     0.50326
             40  H  7  S      0.31591     0.35767
             41  C  8  S      1.99681     1.97978
             42  C  8  S      0.62839     0.34534
             43  C  8  X      0.67001     0.61209
             44  C  8  Y      0.67696     0.61532
             45  C  8  Z      0.69159     0.62373
             46  C  8  S      0.61068     0.31089
             47  C  8  X      0.24620     0.36584
             48  C  8  Y      0.31745     0.43165
             49  C  8  Z      0.38315     0.48164
             50  C  8 XX      0.00965     0.15407
             51  C  8 YY      0.00893     0.14526
             52  C  8 ZZ      0.01261     0.15300
             53  C  8 XY      0.00315     0.01966
             54  C  8 XZ      0.01905     0.00656
             55  C  8 YZ      0.02561     0.03067
             56  H  9  S      0.53118     0.50326
             57  H  9  S      0.31591     0.35767
             58  H 10  S      0.53118     0.50326
             59  H 10  S      0.31591     0.35767
             60  C 11  S      1.99663     1.98096
             61  C 11  S      0.62826     0.34983
             62  C 11  X      0.68059     0.62092
             63  C 11  Y      0.68836     0.62311
             64  C 11  Z      0.69217     0.62548
             65  C 11  S      0.64441     0.33006
             66  C 11  X      0.30348     0.42144
             67  C 11  Y      0.37512     0.48466
             68  C 11  Z      0.38917     0.49991
             69  C 11 XX      0.00999     0.15435
             70  C 11 YY      0.00581     0.14724
             71  C 11 ZZ      0.01390     0.15492
             72  C 11 XY      0.00256     0.02176
             73  C 11 XZ      0.01570     0.00544
             74  C 11 YZ      0.03251     0.02393
             75  H 12  S      0.52754     0.49381
             76  H 12  S      0.31165     0.35690
             77  H 13  S      0.52763     0.49444
             78  H 13  S      0.31624     0.35952
             79  H 14  S      0.52763     0.49444
             80  H 14  S      0.31624     0.35952

          ----- MULLIKEN ATOMIC OVERLAP POPULATIONS -----
          (OFF-DIAGONAL ELEMENTS NEED TO BE MULTIPLIED BY 2)

             1           2           3           4           5

    1    5.0943405
    2    0.3953570   0.5373300
    3    0.3923027  -0.0281999   0.5473766
    4    0.3923027  -0.0281999  -0.0298209   0.5473765
    5    0.3428614  -0.0359732  -0.0381675  -0.0381674   5.0642010
    6   -0.0403121  -0.0026379   0.0043005  -0.0029885   0.3995310
    7   -0.0403120  -0.0026379  -0.0029885   0.0043005   0.3995310
    8   -0.0563807   0.0043812  -0.0036105  -0.0036105   0.3518418
    9   -0.0027140  -0.0000699   0.0001187   0.0026086  -0.0430959
   10   -0.0027141  -0.0000699   0.0026086   0.0001187  -0.0430959
   11    0.0041465  -0.0000946  -0.0000636  -0.0000636  -0.0563807
   12   -0.0000946   0.0000013   0.0000007   0.0000007   0.0043812
   13   -0.0000636   0.0000007   0.0000091   0.0000005  -0.0036105
   14   -0.0000636   0.0000007   0.0000005   0.0000091  -0.0036105

             6           7           8           9          10

    6    0.5640129
    7   -0.0331332   0.5640128
    8   -0.0430959  -0.0430959   5.0642010
    9   -0.0032403   0.0047089   0.3995310   0.5640129
   10    0.0047089  -0.0032403   0.3995310  -0.0331332   0.5640128
   11   -0.0027140  -0.0027141   0.3428614  -0.0403121  -0.0403120
   12   -0.0000699  -0.0000699  -0.0359732  -0.0026379  -0.0026379
   13    0.0001187   0.0026086  -0.0381675   0.0043005  -0.0029885
   14    0.0026086   0.0001187  -0.0381674  -0.0029885   0.0043005

            11          12          13          14

   11    5.0943405
   12    0.3953570   0.5373300
   13    0.3923027  -0.0281999   0.5473766
   14    0.3923027  -0.0281999  -0.0298209   0.5473766

          TOTAL MULLIKEN AND LOWDIN ATOMIC POPULATIONS
       ATOM         MULL.POP.    CHARGE          LOW.POP.     CHARGE
    1 C             6.478656   -0.478656         6.444007   -0.444007
    2 H             0.839188    0.160812         0.850708    0.149292
    3 H             0.843867    0.156133         0.853955    0.146045
    4 H             0.843867    0.156133         0.853955    0.146045
    5 C             6.300246   -0.300246         6.275508   -0.275508
    6 H             0.847089    0.152911         0.860933    0.139067
    7 H             0.847089    0.152911         0.860933    0.139067
    8 C             6.300246   -0.300246         6.275508   -0.275508
    9 H             0.847089    0.152911         0.860933    0.139067
   10 H             0.847089    0.152911         0.860933    0.139067
   11 C             6.478656   -0.478656         6.444007   -0.444007
   12 H             0.839188    0.160812         0.850708    0.149292
   13 H             0.843867    0.156133         0.853955    0.146045
   14 H             0.843867    0.156133         0.853955    0.146045

          MULLIKEN SPHERICAL HARMONIC POPULATIONS
       ATOM           S       P       D      F      G      H      I    TOTAL
    1 C             3.30    3.13    0.05   0.00   0.00   0.00   0.00    6.48
    2 H             0.84    0.00    0.00   0.00   0.00   0.00   0.00    0.84
    3 H             0.84    0.00    0.00   0.00   0.00   0.00   0.00    0.84
    4 H             0.84    0.00    0.00   0.00   0.00   0.00   0.00    0.84
    5 C             3.26    2.99    0.05   0.00   0.00   0.00   0.00    6.30
    6 H             0.85    0.00    0.00   0.00   0.00   0.00   0.00    0.85
    7 H             0.85    0.00    0.00   0.00   0.00   0.00   0.00    0.85
    8 C             3.26    2.99    0.05   0.00   0.00   0.00   0.00    6.30
    9 H             0.85    0.00    0.00   0.00   0.00   0.00   0.00    0.85
   10 H             0.85    0.00    0.00   0.00   0.00   0.00   0.00    0.85
   11 C             3.30    3.13    0.05   0.00   0.00   0.00   0.00    6.48
   12 H             0.84    0.00    0.00   0.00   0.00   0.00   0.00    0.84
   13 H             0.84    0.00    0.00   0.00   0.00   0.00   0.00    0.84
   14 H             0.84    0.00    0.00   0.00   0.00   0.00   0.00    0.84

          -------------------------------
          BOND ORDER AND VALENCE ANALYSIS     BOND ORDER THRESHOLD=0.050
          -------------------------------

                   BOND                       BOND                       BOND
  ATOM PAIR DIST  ORDER      ATOM PAIR DIST  ORDER      ATOM PAIR DIST  ORDER
    1   2  1.086  0.963        1   3  1.086  0.960        1   4  1.086  0.960
    1   5  1.528  0.980        5   6  1.088  0.958        5   7  1.088  0.958
    5   8  1.530  0.977        8   9  1.088  0.958        8  10  1.088  0.958
    8  11  1.528  0.980       11  12  1.086  0.963       11  13  1.086  0.960
   11  14  1.086  0.960

                       TOTAL       BONDED        FREE
      ATOM            VALENCE     VALENCE     VALENCE
    1 C                 3.815       3.815       0.000
    2 H                 0.932       0.932      -0.000
    3 H                 0.932       0.932       0.000
    4 H                 0.932       0.932      -0.000
    5 C                 3.790       3.790       0.000
    6 H                 0.929       0.929       0.000
    7 H                 0.929       0.929      -0.000
    8 C                 3.790       3.790       0.000
    9 H                 0.929       0.929      -0.000
   10 H                 0.929       0.929       0.000
   11 C                 3.815       3.815       0.000
   12 H                 0.932       0.932      -0.000
   13 H                 0.932       0.932      -0.000
   14 H                 0.932       0.932       0.000

          ---------------------
          ELECTROSTATIC MOMENTS
          ---------------------

 POINT   1           X           Y           Z (BOHR)    CHARGE
                -0.000000   -0.000000   -0.000000        0.00 (A.U.)
         DX          DY          DZ         /D/  (DEBYE)
    -0.000000    0.000000    0.000000    0.000000
 ...... END OF PROPERTY EVALUATION ......
 STEP CPU TIME =     0.03 TOTAL CPU TIME =       22.0 (    0.4 MIN)
 TOTAL WALL CLOCK TIME=       35.5 SECONDS, CPU UTILIZATION IS  61.92%
  $VIB   
          IVIB=   0 IATOM=   0 ICOORD=   0 E=     -157.2984095785
 -5.274082817E-07 8.294678092E-08 6.593971183E-10 2.076018756E-07 1.164640908E-07
  4.476565515E-11 1.118384104E-07-1.159514165E-07 1.241609502E-07 1.183672667E-07
 -1.226335585E-07-1.278106467E-07 2.326518925E-07 2.982423712E-07 8.233190432E-11
 -6.754577863E-08-1.506313959E-07 5.714722921E-08-6.458655462E-08-1.482860774E-07
 -5.532788426E-08-2.327072841E-07-2.982783326E-07 2.387570906E-10 6.799630758E-08
  1.507495762E-07 5.781909154E-08 6.413575640E-08 1.482185120E-07-5.467406564E-08
  5.274390383E-07-8.300434937E-08-3.383081233E-10-2.075911434E-07-1.164649965E-07
 -1.779886211E-11-1.125712176E-07 1.163195136E-07 1.250106534E-07-1.176202874E-07
  1.223092820E-07-1.269944725E-07
 -2.579478445E-10 3.093785953E-10 1.474356756E-07
 ......END OF GEOMETRY SEARCH......
 STEP CPU TIME =     0.00 TOTAL CPU TIME =       22.0 (    0.4 MIN)
 TOTAL WALL CLOCK TIME=       35.5 SECONDS, CPU UTILIZATION IS  61.92%

   1 warning(s) detected.
     A line exceeding 80 characters begins with "! default=525600.0  ".
 There may be a problem in your input file.

              1103501  WORDS OF DYNAMIC MEMORY USED
 EXECUTION OF GAMESS TERMINATED NORMALLY Wed Dec  6 19:37:23 2017
 DDI: 263640 bytes (0.3 MB / 0 MWords) used by master data server.

 ----------------------------------------
 CPU timing information for all processes
 ========================================
 0: 21.04 + 0.980 = 21.984
 ----------------------------------------
 ddikick.x: exited gracefully.
----- accounting info -----
Files used on the master node mschen3m-ThinkPad-X230-Tablet were:
-rw-rw-r-- 1 mschen3m mschen3m   492003 Dec  6 19:37 /tmp/RHF_butane.dat
-rwxrwxr-x 1 mschen3m mschen3m     2299 Dec  6 19:36 /tmp/RHF_butane.F05*
-rw-rw-r-- 1 mschen3m mschen3m 44823984 Dec  6 19:37 /tmp/RHF_butane.F08
-rw-rw-r-- 1 mschen3m mschen3m  2094080 Dec  6 19:37 /tmp/RHF_butane.F10
Wed Dec  6 19:37:26 CET 2017
0.0u 0.0s 0:38.72 0.1% 0+0k 176+24io 6pf+0w
