    -----------------------------------------------------------------------
          Psi4: An Open-Source Ab Initio Electronic Structure Package
                              Psi4 (no tag) Driver

    J. M. Turney, A. C. Simmonett, R. M. Parrish, E. G. Hohenstein,
    F. A. Evangelista, J. T. Fermann, B. J. Mintz, L. A. Burns, J. J. Wilke,
    M. L. Abrams, N. J. Russ, M. L. Leininger, C. L. Janssen, E. T. Seidl,
    W. D. Allen, H. F. Schaefer, R. A. King, E. F. Valeev, C. D. Sherrill,
    and T. D. Crawford, WIREs Comput. Mol. Sci. 2, 556-565 (2012)
    (doi: 10.1002/wcms.93)

                         Additional Contributions by
    A. E. DePrince, M. Saitow, U. Bozkaya, A. Yu. Sokolov
    -----------------------------------------------------------------------


    Psi4 started on: Wed Jan 10 15:48:33 2018

    Process ID:   9848
    PSI4DATADIR: /usr/share/psi
    Memory level set to 256.000 MB

  ==> Input File <==

--------------------------------------------------------------------------
memory 125 Gb

molecule molecule_1 {
0 1
C          1.95400        0.13200        0.00000
H          2.73800       -0.61900        0.00000
H          2.09600        0.75700       -0.87700
H          2.09600        0.75700        0.87700
C          0.56800       -0.51200        0.00000
H          0.47000       -1.15700        0.87000
H          0.47000       -1.15700       -0.87000
C         -0.56800        0.51200        0.00000
H         -0.47000        1.15700        0.87000
H         -0.47000        1.15700       -0.87000
C         -1.95400       -0.13200        0.00000
H         -2.73800        0.61900        0.00000
H         -2.09600       -0.75700       -0.87700
H         -2.09600       -0.75700        0.87700
}

set globals {
  reference rhf
  g_convergence gau_tight
  basis 6-31G(d)
}
optimize('scf')
--------------------------------------------------------------------------

  Memory set to 125.000 GiB by Python script.
gradient() will perform analytic gradient computation.

*** tstart() called on mschen3m-ThinkPad-X230-Tablet
*** at Wed Jan 10 15:48:33 2018


         ---------------------------------------------------------
                                   SCF
            by Justin Turney, Rob Parrish, and Andy Simmonett
                              RHF Reference
                        8 Threads, 125000 MiB Core
         ---------------------------------------------------------

  ==> Geometry <==

    Molecular point group: c2h
    Full point group: C2h

    Geometry (in Angstrom), charge = 0, multiplicity = 1:

       Center              X                  Y                   Z       
    ------------   -----------------  -----------------  -----------------
           C          1.954000000000     0.132000000000     0.000000000000
           H          2.738000000000    -0.619000000000     0.000000000000
           H          2.096000000000     0.757000000000    -0.877000000000
           H          2.096000000000     0.757000000000     0.877000000000
           C          0.568000000000    -0.512000000000     0.000000000000
           H          0.470000000000    -1.157000000000     0.870000000000
           H          0.470000000000    -1.157000000000    -0.870000000000
           C         -0.568000000000     0.512000000000     0.000000000000
           H         -0.470000000000     1.157000000000     0.870000000000
           H         -0.470000000000     1.157000000000    -0.870000000000
           C         -1.954000000000    -0.132000000000     0.000000000000
           H         -2.738000000000     0.619000000000     0.000000000000
           H         -2.096000000000    -0.757000000000    -0.877000000000
           H         -2.096000000000    -0.757000000000     0.877000000000

  Running in c2h symmetry.

  Rotational constants: A =      0.78994  B =      0.12107  C =      0.11369 [cm^-1]
  Rotational constants: A =  23681.72993  B =   3629.52365  C =   3408.32465 [MHz]
  Nuclear repulsion =  130.862814878042087

  Charge       = 0
  Multiplicity = 1
  Electrons    = 34
  Nalpha       = 17
  Nbeta        = 17

  ==> Algorithm <==

  SCF Algorithm Type is DF.
  DIIS enabled.
  MOM disabled.
  Fractional occupation disabled.
  Guess Type is CORE.
  Energy threshold   = 1.00e-08
  Density threshold  = 1.00e-08
  Integral threshold = 0.00e+00

  ==> Primary Basis <==

  Basis Set: 6-31G(D)
    Number of shells: 44
    Number of basis function: 80
    Number of Cartesian functions: 80
    Spherical Harmonics?: false
    Max angular momentum: 2

  ==> Pre-Iterations <==

   -------------------------------------------------------
    Irrep   Nso     Nmo     Nalpha   Nbeta   Ndocc  Nsocc
   -------------------------------------------------------
     Ag        28      28       0       0       0       0
     Bg        12      12       0       0       0       0
     Au        12      12       0       0       0       0
     Bu        28      28       0       0       0       0
   -------------------------------------------------------
    Total      80      80      17      17      17       0
   -------------------------------------------------------

 OEINTS: Overlap, kinetic, potential, dipole, and quadrupole integrals
         stored in file 35.

  ==> Integral Setup <==

  ==> DFJK: Density-Fitted J/K Matrices <==

    J tasked:                  Yes
    K tasked:                  Yes
    wK tasked:                  No
    OpenMP threads:              8
    Integrals threads:           8
    Memory (MB):             89406
    Algorithm:                Core
    Integral Cache:           NONE
    Schwarz Cutoff:          1E-12
    Fitting Condition:       1E-12

   => Auxiliary Basis Set <=

  Basis Set: 
    Number of shells: 186
    Number of basis function: 574
    Number of Cartesian functions: 574
    Spherical Harmonics?: false
    Max angular momentum: 3

  Minimum eigenvalue in the overlap matrix is 4.6219165954E-03.
  Using Symmetric Orthogonalization.
  SCF Guess: Core (One-Electron) Hamiltonian.

  ==> Iterations <==

                           Total Energy        Delta E     RMS |[F,P]|

    Occupation by irrep:
             Ag    Bg    Au    Bu 
    DOCC [     7,    2,    1,    7 ]

   @DF-RHF iter   1:  -122.40551584759433   -1.22406e+02   1.48909e-01 
    Occupation by irrep:
             Ag    Bg    Au    Bu 
    DOCC [     7,    1,    2,    7 ]

   @DF-RHF iter   2:  -128.83209072232583   -6.42657e+00   9.02941e-02 DIIS
    Occupation by irrep:
             Ag    Bg    Au    Bu 
    DOCC [     7,    2,    2,    6 ]

   @DF-RHF iter   3:  -145.40764613279302   -1.65756e+01   9.96287e-02 DIIS
   @DF-RHF iter   4:  -156.02895399600831   -1.06213e+01   3.34547e-02 DIIS
   @DF-RHF iter   5:  -156.91139274617532   -8.82439e-01   1.86598e-02 DIIS
   @DF-RHF iter   6:  -157.27318586282249   -3.61793e-01   4.05815e-03 DIIS
   @DF-RHF iter   7:  -157.29749131262994   -2.43054e-02   6.25021e-04 DIIS
   @DF-RHF iter   8:  -157.29832956522020   -8.38253e-04   1.64064e-04 DIIS
   @DF-RHF iter   9:  -157.29839357228056   -6.40071e-05   2.80772e-05 DIIS
   @DF-RHF iter  10:  -157.29839546425146   -1.89197e-06   5.90179e-06 DIIS
   @DF-RHF iter  11:  -157.29839552549683   -6.12454e-08   1.19850e-06 DIIS
   @DF-RHF iter  12:  -157.29839552820621   -2.70938e-09   1.43056e-07 DIIS
   @DF-RHF iter  13:  -157.29839552824674   -4.05294e-11   2.02012e-08 DIIS
   @DF-RHF iter  14:  -157.29839552824760   -8.52651e-13   4.06359e-09 DIIS

  ==> Post-Iterations <==

    Orbital Energies (a.u.)
    -----------------------

    Doubly Occupied:                                                      

       1Ag   -11.213619     1Bu   -11.213025     2Ag   -11.207267  
       2Bu   -11.207264     3Ag    -1.069810     3Bu    -0.981031  
       4Ag    -0.862443     4Bu    -0.789745     1Au    -0.638833  
       5Ag    -0.584806     5Bu    -0.574224     1Bg    -0.568725  
       6Bu    -0.515337     2Au    -0.496556     6Ag    -0.468513  
       2Bg    -0.462488     7Ag    -0.455829  

    Virtual:                                                              

       8Ag     0.232863     7Bu     0.262206     3Au     0.285540  
       8Bu     0.295012     9Ag     0.321694    10Ag     0.336902  
       9Bu     0.338138     3Bg     0.340848     4Au     0.353447  
       4Bg     0.353730    10Bu     0.420603    11Ag     0.424651  
      11Bu     0.442476    12Bu     0.698274    12Ag     0.700477  
       5Bg     0.753293     5Au     0.754604    13Ag     0.757839  
      13Bu     0.847321     6Au     0.866515    14Ag     0.931291  
      14Bu     0.966483    15Bu     1.027664     6Bg     1.062701  
      15Ag     1.112866     7Au     1.137086    16Ag     1.173181  
      16Bu     1.189127     7Bg     1.192594     8Au     1.204053  
      17Ag     1.210091    18Ag     1.229382    17Bu     1.235956  
      18Bu     1.245489    19Ag     1.277285     8Bg     1.284408  
      19Bu     1.615605    20Ag     1.696858     9Au     1.707488  
      20Bu     1.740567    21Ag     1.913175    21Bu     1.929944  
       9Bg     2.141959    22Bu     2.190211    22Ag     2.223592  
      10Au     2.274567    23Ag     2.285793    23Bu     2.337748  
      10Bg     2.387100    24Ag     2.502219    11Bg     2.608407  
      11Au     2.613696    24Bu     2.649460    12Bg     2.744956  
      25Ag     2.752807    12Au     2.756870    25Bu     2.900474  
      26Ag     3.033623    26Bu     3.104145    27Ag     4.567080  
      27Bu     4.675834    28Ag     4.794820    28Bu     4.943870  

    Final Occupation by Irrep:
             Ag    Bg    Au    Bu 
    DOCC [     7,    2,    2,    6 ]

  Energy converged.

  @DF-RHF Final Energy:  -157.29839552824760

   => Energetics <=

    Nuclear Repulsion Energy =            130.8628148780420872
    One-Electron Energy =                -469.7033899936420767
    Two-Electron Energy =                 181.5421795873523934
    DFT Exchange-Correlation Energy =       0.0000000000000000
    Empirical Dispersion Energy =           0.0000000000000000
    PCM Polarization Energy =               0.0000000000000000
    EFP Energy =                            0.0000000000000000
    Total Energy =                       -157.2983955282476245

    Alert: EFP and PCM quantities not currently incorporated into SCF psivars.

Properties will be evaluated at   0.000000,   0.000000,   0.000000 Bohr
  ==> Properties <==


Properties computed using the SCF density matrix

  Nuclear Dipole Moment: (a.u.)
     X:    -0.0000      Y:     0.0000      Z:     0.0000

  Electronic Dipole Moment: (a.u.)
     X:     0.0000      Y:     0.0000      Z:     0.0000

  Dipole Moment: (a.u.)
     X:    -0.0000      Y:     0.0000      Z:     0.0000     Total:     0.0000

  Dipole Moment: (Debye)
     X:    -0.0000      Y:     0.0000      Z:     0.0000     Total:     0.0000


  Saving occupied orbitals to File 180.

*** tstop() called on mschen3m-ThinkPad-X230-Tablet at Wed Jan 10 15:48:35 2018
Module time:
	user time   =       3.22 seconds =       0.05 minutes
	system time =       0.02 seconds =       0.00 minutes
	total time  =          2 seconds =       0.03 minutes
Total time:
	user time   =       3.22 seconds =       0.05 minutes
	system time =       0.02 seconds =       0.00 minutes
	total time  =          2 seconds =       0.03 minutes

*** tstart() called on mschen3m-ThinkPad-X230-Tablet
*** at Wed Jan 10 15:48:35 2018


         ------------------------------------------------------------
                                   SCF GRAD                          
                          Rob Parrish, Justin Turney,                
                       Andy Simmonett, and Alex Sokolov              
         ------------------------------------------------------------

  ==> Geometry <==

    Molecular point group: c2h
    Full point group: C2h

    Geometry (in Angstrom), charge = 0, multiplicity = 1:

       Center              X                  Y                   Z       
    ------------   -----------------  -----------------  -----------------
           C          1.954000000000     0.132000000000     0.000000000000
           H          2.738000000000    -0.619000000000     0.000000000000
           H          2.096000000000     0.757000000000    -0.877000000000
           H          2.096000000000     0.757000000000     0.877000000000
           C          0.568000000000    -0.512000000000     0.000000000000
           H          0.470000000000    -1.157000000000     0.870000000000
           H          0.470000000000    -1.157000000000    -0.870000000000
           C         -0.568000000000     0.512000000000     0.000000000000
           H         -0.470000000000     1.157000000000     0.870000000000
           H         -0.470000000000     1.157000000000    -0.870000000000
           C         -1.954000000000    -0.132000000000     0.000000000000
           H         -2.738000000000     0.619000000000     0.000000000000
           H         -2.096000000000    -0.757000000000    -0.877000000000
           H         -2.096000000000    -0.757000000000     0.877000000000

  Nuclear repulsion =  130.862814878042087

  ==> Basis Set <==

  Basis Set: 6-31G(D)
    Number of shells: 44
    Number of basis function: 80
    Number of Cartesian functions: 80
    Spherical Harmonics?: false
    Max angular momentum: 2

  ==> DFJKGrad: Density-Fitted SCF Gradients <==

    Gradient:                    1
    J tasked:                  Yes
    K tasked:                  Yes
    wK tasked:                  No
    OpenMP threads:              8
    Integrals threads:           8
    Memory (MB):             89406
    Schwarz Cutoff:          0E+00
    Fitting Condition:       1E-12

   => Auxiliary Basis Set <=

  Basis Set: 
    Number of shells: 186
    Number of basis function: 574
    Number of Cartesian functions: 574
    Spherical Harmonics?: false
    Max angular momentum: 3


  -Total Gradient:
     Atom            X                  Y                   Z
    ------   -----------------  -----------------  -----------------
       1       -0.000104389391     0.000216553596     0.000000000054
       2        0.000028883315     0.000089172090    -0.000000000004
       3        0.000039109117    -0.000139965988     0.000076183230
       4        0.000039109081    -0.000139966030    -0.000076183294
       5       -0.000470376858    -0.000570059867    -0.000000000169
       6        0.000110295380     0.000272761537    -0.000344856892
       7        0.000110295407     0.000272761634     0.000344857078
       8        0.000470378274     0.000570060250    -0.000000000082
       9       -0.000110296037    -0.000272761749    -0.000344856881
      10       -0.000110296062    -0.000272761786     0.000344856968
      11        0.000104389117    -0.000216552740    -0.000000000021
      12       -0.000028883348    -0.000089172005     0.000000000001
      13       -0.000039109001     0.000139965538     0.000076182612
      14       -0.000039108993     0.000139965519    -0.000076182600


*** tstop() called on mschen3m-ThinkPad-X230-Tablet at Wed Jan 10 15:48:37 2018
Module time:
	user time   =       3.14 seconds =       0.05 minutes
	system time =       0.07 seconds =       0.00 minutes
	total time  =          2 seconds =       0.03 minutes
Total time:
	user time   =       6.36 seconds =       0.11 minutes
	system time =       0.09 seconds =       0.00 minutes
	total time  =          4 seconds =       0.07 minutes
CURRENT ENERGY: -157.2983955282

			-----------------------------------------
			 OPTKING 2.0: for geometry optimizations 
			  - R.A. King,  Bethel University        
			-----------------------------------------

	Internal coordinates to be generated automatically.
	Detected frag with atoms:  1 2 3 4 5 6 7 8 9 10 11 12 13 14
	---Fragment 1 Bond Connectivity---
	 1 : 2 3 4 5
	 2 : 1
	 3 : 1
	 4 : 1
	 5 : 1 6 7 8
	 6 : 5
	 7 : 5
	 8 : 5 9 10 11
	 9 : 8
	 10 : 8
	 11 : 8 12 13 14
	 12 : 11
	 13 : 11
	 14 : 11

	---Fragment 1 Geometry and Gradient---
	 C           3.6925248637        0.2494438495        0.0000000000
	 H           5.1740701518       -1.1697404763        0.0000000000
	 H           3.9608659745        1.4305226826       -1.6572898185
	 H           3.9608659745        1.4305226826        1.6572898185
	 C           1.0733644435       -0.9675397800        0.0000000000
	 H           0.8881712825       -2.1864131357        1.6440617356
	 H           0.8881712825       -2.1864131357       -1.6440617356
	 C          -1.0733644435        0.9675397800        0.0000000000
	 H          -0.8881712825        2.1864131357        1.6440617356
	 H          -0.8881712825        2.1864131357       -1.6440617356
	 C          -3.6925248637       -0.2494438495        0.0000000000
	 H          -5.1740701518        1.1697404763        0.0000000000
	 H          -3.9608659745       -1.4305226826       -1.6572898185
	 H          -3.9608659745       -1.4305226826        1.6572898185
	            -0.0001043894        0.0002165536        0.0000000001
	             0.0000288833        0.0000891721       -0.0000000000
	             0.0000391091       -0.0001399660        0.0000761832
	             0.0000391091       -0.0001399660       -0.0000761833
	            -0.0004703769       -0.0005700599       -0.0000000002
	             0.0001102954        0.0002727615       -0.0003448569
	             0.0001102954        0.0002727616        0.0003448571
	             0.0004703783        0.0005700602       -0.0000000001
	            -0.0001102960       -0.0002727617       -0.0003448569
	            -0.0001102961       -0.0002727618        0.0003448570
	             0.0001043891       -0.0002165527       -0.0000000000
	            -0.0000288833       -0.0000891720        0.0000000000
	            -0.0000391090        0.0001399655        0.0000761826
	            -0.0000391090        0.0001399655       -0.0000761826

	Previous optimization step data not found.  Starting new optimization.

	---Fragment 1 Intrafragment Coordinates---
	 - Coordinate -           - BOHR/RAD -       - ANG/DEG -
	 R(1,2)           =         2.051600	       1.085660
	 R(1,3)           =         2.052697	       1.086240
	 R(1,4)           =         2.052697	       1.086240
	 R(1,5)           =         2.888088	       1.528310
	 R(5,6)           =         2.054967	       1.087442
	 R(5,7)           =         2.054967	       1.087442
	 R(5,8)           =         2.890152	       1.529403
	 R(8,9)           =         2.054967	       1.087442
	 R(8,10)          =         2.054967	       1.087442
	 R(8,11)          =         2.888088	       1.528310
	 R(11,12)         =         2.051600	       1.085660
	 R(11,13)         =         2.052697	       1.086240
	 R(11,14)         =         2.052697	       1.086240
	 B(1,5,6)         =         1.908863	     109.369794
	 B(1,5,7)         =         1.908863	     109.369794
	 B(1,5,8)         =         1.973033	     113.046464
	 B(2,1,3)         =         1.879279	     107.674740
	 B(2,1,4)         =         1.879279	     107.674740
	 B(2,1,5)         =         1.942723	     111.309806
	 B(3,1,4)         =         1.879369	     107.679914
	 B(3,1,5)         =         1.940144	     111.162049
	 B(4,1,5)         =         1.940144	     111.162049
	 B(5,8,9)         =         1.907302	     109.280352
	 B(5,8,10)        =         1.907302	     109.280352
	 B(5,8,11)        =         1.973033	     113.046464
	 B(6,5,7)         =         1.854734	     106.268426
	 B(6,5,8)         =         1.907302	     109.280352
	 B(7,5,8)         =         1.907302	     109.280352
	 B(8,11,12)       =         1.942723	     111.309806
	 B(8,11,13)       =         1.940144	     111.162049
	 B(8,11,14)       =         1.940144	     111.162049
	 B(9,8,10)        =         1.854734	     106.268426
	 B(9,8,11)        =         1.908863	     109.369794
	 B(10,8,11)       =         1.908863	     109.369794
	 B(12,11,13)      =         1.879279	     107.674740
	 B(12,11,14)      =         1.879279	     107.674740
	 B(13,11,14)      =         1.879369	     107.679914
	 D(1,5,8,9)       =        -1.011409	     -57.949449
	 D(1,5,8,10)      =         1.011409	      57.949449
	 D(1,5,8,11)      =         3.141593	     180.000000
	 D(2,1,5,6)       =         1.012284	      57.999595
	 D(2,1,5,7)       =        -1.012284	     -57.999595
	 D(2,1,5,8)       =         3.141593	     180.000000
	 D(3,1,5,6)       =         3.107218	     178.030468
	 D(3,1,5,7)       =         1.082650	      62.031278
	 D(3,1,5,8)       =        -1.046659	     -59.969127
	 D(4,1,5,6)       =        -1.082650	     -62.031278
	 D(4,1,5,7)       =        -3.107218	    -178.030468
	 D(4,1,5,8)       =         1.046659	      59.969127
	 D(5,8,11,12)     =         3.141593	     180.000000
	 D(5,8,11,13)     =        -1.046659	     -59.969127
	 D(5,8,11,14)     =         1.046659	      59.969127
	 D(6,5,8,9)       =         1.118775	      64.101102
	 D(6,5,8,10)      =         3.141593	     180.000000
	 D(6,5,8,11)      =        -1.011409	     -57.949449
	 D(7,5,8,9)       =         3.141593	     180.000000
	 D(7,5,8,10)      =        -1.118775	     -64.101102
	 D(7,5,8,11)      =         1.011409	      57.949449
	 D(9,8,11,12)     =         1.012284	      57.999595
	 D(9,8,11,13)     =         3.107218	     178.030468
	 D(9,8,11,14)     =        -1.082650	     -62.031278
	 D(10,8,11,12)    =        -1.012284	     -57.999595
	 D(10,8,11,13)    =         1.082650	      62.031278
	 D(10,8,11,14)    =        -3.107218	    -178.030468

	Current energy   :      -157.2983955282

	Generating empirical Hessian (Schlegel '84) for each fragment.
	Taking RFO optimization step.
	Going to follow RFO solution 1.
	Using RFO vector 1.
	Norm of target step-size    0.00450
	Projected energy change by RFO approximation:        -0.0000045532

	Back-transformation to cartesian coordinates...
	Successfully converged to displaced geometry.

	--- Internal Coordinate Step in ANG or DEG, aJ/ANG or AJ/DEG ---
	 ---------------------------------------------------------------------------
	   Coordinate                Previous        Force       Change         New 
	   ----------                --------       ------       ------       ------
	    1 R(1,2)          =      1.085660     0.000336     0.000061     1.085721
	    2 R(1,3)          =      1.086240     0.001128     0.000206     1.086446
	    3 R(1,4)          =      1.086240     0.001128     0.000206     1.086446
	    4 R(1,5)          =      1.528310    -0.000110    -0.000024     1.528286
	    5 R(5,6)          =      1.087442     0.003688     0.000675     1.088116
	    6 R(5,7)          =      1.087442     0.003688     0.000675     1.088116
	    7 R(5,8)          =      1.529403     0.001519     0.000331     1.529734
	    8 R(8,9)          =      1.087442     0.003688     0.000675     1.088116
	    9 R(8,10)         =      1.087442     0.003688     0.000675     1.088116
	   10 R(8,11)         =      1.528310    -0.000110    -0.000024     1.528286
	   11 R(11,12)        =      1.085660     0.000336     0.000061     1.085721
	   12 R(11,13)        =      1.086240     0.001128     0.000206     1.086446
	   13 R(11,14)        =      1.086240     0.001128     0.000206     1.086446
	   14 B(1,5,6)        =    109.369794     0.000001     0.024111   109.393905
	   15 B(1,5,7)        =    109.369794     0.000001     0.024111   109.393905
	   16 B(1,5,8)        =    113.046464     0.000008     0.032379   113.078842
	   17 B(2,1,3)        =    107.674740     0.000006     0.041653   107.716393
	   18 B(2,1,4)        =    107.674740     0.000006     0.041653   107.716393
	   19 B(2,1,5)        =    111.309806    -0.000007    -0.017751   111.292055
	   20 B(3,1,4)        =    107.679914    -0.000001    -0.032129   107.647785
	   21 B(3,1,5)        =    111.162049    -0.000002    -0.015275   111.146773
	   22 B(4,1,5)        =    111.162049    -0.000002    -0.015275   111.146773
	   23 B(5,8,9)        =    109.280352    -0.000005    -0.032221   109.248132
	   24 B(5,8,10)       =    109.280352    -0.000005    -0.032221   109.248132
	   25 B(5,8,11)       =    113.046464     0.000008     0.032379   113.078842
	   26 B(6,5,7)        =    106.268426     0.000000    -0.019499   106.248927
	   27 B(6,5,8)        =    109.280352    -0.000005    -0.032220   109.248132
	   28 B(7,5,8)        =    109.280352    -0.000005    -0.032220   109.248132
	   29 B(8,11,12)      =    111.309806    -0.000007    -0.017751   111.292055
	   30 B(8,11,13)      =    111.162049    -0.000002    -0.015275   111.146774
	   31 B(8,11,14)      =    111.162049    -0.000002    -0.015275   111.146774
	   32 B(9,8,10)       =    106.268426     0.000000    -0.019499   106.248926
	   33 B(9,8,11)       =    109.369794     0.000001     0.024112   109.393906
	   34 B(10,8,11)      =    109.369794     0.000001     0.024112   109.393906
	   35 B(12,11,13)     =    107.674740     0.000006     0.041653   107.716393
	   36 B(12,11,14)     =    107.674740     0.000006     0.041653   107.716393
	   37 B(13,11,14)     =    107.679914    -0.000001    -0.032129   107.647785
	   38 D(1,5,8,9)      =    -57.949449     0.000001     0.029649   -57.919800
	   39 D(1,5,8,10)     =     57.949449    -0.000001    -0.029648    57.919801
	   40 D(1,5,8,11)     =    180.000000     0.000000     0.000000   180.000000
	   41 D(2,1,5,6)      =     57.999595     0.000000     0.001872    58.001468
	   42 D(2,1,5,7)      =    -57.999595    -0.000000    -0.001872   -58.001468
	   43 D(2,1,5,8)      =    180.000000     0.000000     0.000000   180.000000
	   44 D(3,1,5,6)      =    178.030468     0.000001     0.032394   178.062863
	   45 D(3,1,5,7)      =     62.031278     0.000000     0.028650    62.059927
	   46 D(3,1,5,8)      =    -59.969127     0.000000     0.030522   -59.938605
	   47 D(4,1,5,6)      =    -62.031278    -0.000000    -0.028649   -62.059927
	   48 D(4,1,5,7)      =   -178.030468    -0.000001    -0.032394  -178.062863
	   49 D(4,1,5,8)      =     59.969127    -0.000000    -0.030522    59.938605
	   50 D(5,8,11,12)    =    180.000000     0.000000     0.000000   180.000000
	   51 D(5,8,11,13)    =    -59.969127     0.000000     0.030522   -59.938605
	   52 D(5,8,11,14)    =     59.969127    -0.000000    -0.030522    59.938605
	   53 D(6,5,8,9)      =     64.101102     0.000001     0.059297    64.160399
	   54 D(6,5,8,10)     =    180.000000    -0.000000     0.000000   180.000000
	   55 D(6,5,8,11)     =    -57.949449     0.000001     0.029648   -57.919801
	   56 D(7,5,8,9)      =    180.000000     0.000000     0.000000   180.000000
	   57 D(7,5,8,10)     =    -64.101102    -0.000001    -0.059296   -64.160398
	   58 D(7,5,8,11)     =     57.949449    -0.000001    -0.029648    57.919801
	   59 D(9,8,11,12)    =     57.999595     0.000000     0.001873    58.001468
	   60 D(9,8,11,13)    =    178.030468     0.000001     0.032394   178.062863
	   61 D(9,8,11,14)    =    -62.031278    -0.000000    -0.028649   -62.059927
	   62 D(10,8,11,12)   =    -57.999595    -0.000000    -0.001872   -58.001468
	   63 D(10,8,11,13)   =     62.031278     0.000000     0.028650    62.059927
	   64 D(10,8,11,14)   =   -178.030468    -0.000001    -0.032394  -178.062863
	 ---------------------------------------------------------------------------

  ==> Convergence Check <==

  Measures of convergence in internal coordinates in au.
  Criteria marked as inactive (o), active & met (*), and active & unmet ( ).
  --------------------------------------------------------------------------------------------- ~
   Step     Total Energy     Delta E     MAX Force     RMS Force      MAX Disp      RMS Disp    ~
  --------------------------------------------------------------------------------------------- ~
    Convergence Criteria             o    1.50e-05 *    1.00e-05 *    6.00e-05 *    4.00e-05 *  ~
  --------------------------------------------------------------------------------------------- ~
      1    -157.29839553   -1.57e+02 o    4.48e-04      1.27e-04      1.27e-03      5.62e-04    ~
  ---------------------------------------------------------------------------------------------

	Writing optimization data to binary file.
	Structure for next step:
	Cartesian Geometry (in Angstrom)
	    C     1.9544064296   0.1319682398   0.0000000000
	    H     2.7381287328  -0.6194100616   0.0000000000
	    H     2.0960436695   0.7574270997  -0.8769862533
	    H     2.0960436695   0.7574270997   0.8769862533
	    C     0.5683514888  -0.5118571843   0.0000000000
	    H     0.4697763849  -1.1573288843   0.8704287216
	    H     0.4697763849  -1.1573288843  -0.8704287216
	    C    -0.5683514888   0.5118571843   0.0000000000
	    H    -0.4697763849   1.1573288843   0.8704287216
	    H    -0.4697763849   1.1573288843  -0.8704287216
	    C    -1.9544064296  -0.1319682398   0.0000000000
	    H    -2.7381287328   0.6194100616   0.0000000000
	    H    -2.0960436695  -0.7574270997  -0.8769862533
	    H    -2.0960436695  -0.7574270997   0.8769862533
			--------------------------
			 OPTKING Finished Execution 
			--------------------------

    Structure for next step:
    Molecular point group: c2h
    Full point group: C2h

    Geometry (in Angstrom), charge = 0, multiplicity = 1:

    C            1.954406280378     0.131968229737     0.000000000000
    H            2.738128523726    -0.619410014291     0.000000000000
    H            2.096043509483     0.757427041867    -0.876986186334
    H            2.096043509483     0.757427041867     0.876986186334
    C            0.568351445379    -0.511857145189     0.000000000000
    H            0.469776349057    -1.157328795958     0.870428655082
    H            0.469776349057    -1.157328795958    -0.870428655082
    C           -0.568351445379     0.511857145189     0.000000000000
    H           -0.469776349057     1.157328795958     0.870428655082
    H           -0.469776349057     1.157328795958    -0.870428655082
    C           -1.954406280378    -0.131968229737     0.000000000000
    H           -2.738128523726     0.619410014291     0.000000000000
    H           -2.096043509483    -0.757427041867    -0.876986186334
    H           -2.096043509483    -0.757427041867     0.876986186334

gradient() will perform analytic gradient computation.

*** tstart() called on mschen3m-ThinkPad-X230-Tablet
*** at Wed Jan 10 15:48:37 2018


         ---------------------------------------------------------
                                   SCF
            by Justin Turney, Rob Parrish, and Andy Simmonett
                              RHF Reference
                        8 Threads, 125000 MiB Core
         ---------------------------------------------------------

  ==> Geometry <==

    Molecular point group: c2h
    Full point group: C2h

    Geometry (in Angstrom), charge = 0, multiplicity = 1:

       Center              X                  Y                   Z       
    ------------   -----------------  -----------------  -----------------
           C          1.954406280378     0.131968229737     0.000000000000
           H          2.738128523726    -0.619410014291     0.000000000000
           H          2.096043509483     0.757427041867    -0.876986186334
           H          2.096043509483     0.757427041867     0.876986186334
           C          0.568351445379    -0.511857145189     0.000000000000
           H          0.469776349057    -1.157328795958     0.870428655082
           H          0.469776349057    -1.157328795958    -0.870428655082
           C         -0.568351445379     0.511857145189     0.000000000000
           H         -0.469776349057     1.157328795958     0.870428655082
           H         -0.469776349057     1.157328795958    -0.870428655082
           C         -1.954406280378    -0.131968229737     0.000000000000
           H         -2.738128523726     0.619410014291     0.000000000000
           H         -2.096043509483    -0.757427041867    -0.876986186334
           H         -2.096043509483    -0.757427041867     0.876986186334

  Running in c2h symmetry.

  Rotational constants: A =      0.78972  B =      0.12102  C =      0.11365 [cm^-1]
  Rotational constants: A =  23675.18839  B =   3628.17102  C =   3407.13008 [MHz]
  Nuclear repulsion =  130.838864146234982

  Charge       = 0
  Multiplicity = 1
  Electrons    = 34
  Nalpha       = 17
  Nbeta        = 17

  ==> Algorithm <==

  SCF Algorithm Type is DF.
  DIIS enabled.
  MOM disabled.
  Fractional occupation disabled.
  Guess Type is READ.
  Energy threshold   = 1.00e-08
  Density threshold  = 1.00e-08
  Integral threshold = 0.00e+00

  ==> Primary Basis <==

  Basis Set: 6-31G(D)
    Number of shells: 44
    Number of basis function: 80
    Number of Cartesian functions: 80
    Spherical Harmonics?: false
    Max angular momentum: 2

  ==> Pre-Iterations <==

   -------------------------------------------------------
    Irrep   Nso     Nmo     Nalpha   Nbeta   Ndocc  Nsocc
   -------------------------------------------------------
     Ag        28      28       0       0       0       0
     Bg        12      12       0       0       0       0
     Au        12      12       0       0       0       0
     Bu        28      28       0       0       0       0
   -------------------------------------------------------
    Total      80      80      17      17      17       0
   -------------------------------------------------------

 OEINTS: Overlap, kinetic, potential, dipole, and quadrupole integrals
         stored in file 35.

  ==> Integral Setup <==

  ==> DFJK: Density-Fitted J/K Matrices <==

    J tasked:                  Yes
    K tasked:                  Yes
    wK tasked:                  No
    OpenMP threads:              8
    Integrals threads:           8
    Memory (MB):             89406
    Algorithm:                Core
    Integral Cache:           NONE
    Schwarz Cutoff:          1E-12
    Fitting Condition:       1E-12

   => Auxiliary Basis Set <=

  Basis Set: 
    Number of shells: 186
    Number of basis function: 574
    Number of Cartesian functions: 574
    Spherical Harmonics?: false
    Max angular momentum: 3

  Minimum eigenvalue in the overlap matrix is 4.6253213475E-03.
  Using Symmetric Orthogonalization.
  SCF Guess: Reading in previously saved MOs, projecting if necessary.

  Using orbitals from previous SCF, no projection.
  Recomputing DOCC and SOCC from number of alpha and beta electrons from previous calculation.
             Ag    Bg    Au    Bu 
    DOCC [     7,    2,    2,    6 ]

  ==> Iterations <==

                           Total Energy        Delta E     RMS |[F,P]|

   @DF-RHF iter   0:  -157.29714295370047   -1.57297e+02   3.93448e-05 
   @DF-RHF iter   1:  -157.29839727813942   -1.25432e-03   6.38382e-06 
   @DF-RHF iter   2:  -157.29839732921482   -5.10754e-08   2.64412e-06 DIIS
   @DF-RHF iter   3:  -157.29839733556389   -6.34907e-09   6.17134e-07 DIIS
   @DF-RHF iter   4:  -157.29839733625437   -6.90477e-10   1.28928e-07 DIIS
   @DF-RHF iter   5:  -157.29839733629757   -4.32010e-11   2.94215e-08 DIIS
   @DF-RHF iter   6:  -157.29839733629916   -1.59162e-12   8.64027e-09 DIIS

  ==> Post-Iterations <==

    Orbital Energies (a.u.)
    -----------------------

    Doubly Occupied:                                                      

       1Ag   -11.213813     1Bu   -11.213219     2Ag   -11.207377  
       2Bu   -11.207374     3Ag    -1.069680     3Bu    -0.981006  
       4Ag    -0.862367     4Bu    -0.789512     1Au    -0.638631  
       5Ag    -0.584823     5Bu    -0.574247     1Bg    -0.568601  
       6Bu    -0.515424     2Au    -0.496412     6Ag    -0.468508  
       2Bg    -0.462281     7Ag    -0.455826  

    Virtual:                                                              

       8Ag     0.232813     7Bu     0.262164     3Au     0.285380  
       8Bu     0.294869     9Ag     0.321670    10Ag     0.336823  
       9Bu     0.338103     3Bg     0.340778     4Au     0.353367  
       4Bg     0.353560    10Bu     0.420458    11Ag     0.424616  
      11Bu     0.442478    12Bu     0.698142    12Ag     0.700527  
       5Bg     0.753299     5Au     0.754676    13Ag     0.758047  
      13Bu     0.847368     6Au     0.866592    14Ag     0.931089  
      14Bu     0.966386    15Bu     1.027521     6Bg     1.062451  
      15Ag     1.112853     7Au     1.136691    16Ag     1.172877  
      16Bu     1.189068     7Bg     1.192275     8Au     1.203736  
      17Ag     1.209853    18Ag     1.229134    17Bu     1.235354  
      18Bu     1.245238    19Ag     1.276911     8Bg     1.283818  
      19Bu     1.615521    20Ag     1.696767     9Au     1.707250  
      20Bu     1.740755    21Ag     1.912915    21Bu     1.929800  
       9Bg     2.141936    22Bu     2.189966    22Ag     2.223625  
      10Au     2.274328    23Ag     2.285343    23Bu     2.337555  
      10Bg     2.387365    24Ag     2.501945    11Bg     2.607803  
      11Au     2.613308    24Bu     2.649080    12Bg     2.743962  
      25Ag     2.752409    12Au     2.756318    25Bu     2.900375  
      26Ag     3.033552    26Bu     3.103787    27Ag     4.566656  
      27Bu     4.675660    28Ag     4.794689    28Bu     4.943634  

    Final Occupation by Irrep:
             Ag    Bg    Au    Bu 
    DOCC [     7,    2,    2,    6 ]

  Energy converged.

  @DF-RHF Final Energy:  -157.29839733629916

   => Energetics <=

    Nuclear Repulsion Energy =            130.8388641462349824
    One-Electron Energy =                -469.6563182490980353
    Two-Electron Energy =                 181.5190567665637786
    DFT Exchange-Correlation Energy =       0.0000000000000000
    Empirical Dispersion Energy =           0.0000000000000000
    PCM Polarization Energy =               0.0000000000000000
    EFP Energy =                            0.0000000000000000
    Total Energy =                       -157.2983973362992742

    Alert: EFP and PCM quantities not currently incorporated into SCF psivars.

Properties will be evaluated at   0.000000,   0.000000,   0.000000 Bohr
  ==> Properties <==


Properties computed using the SCF density matrix

  Nuclear Dipole Moment: (a.u.)
     X:     0.0000      Y:     0.0000      Z:     0.0000

  Electronic Dipole Moment: (a.u.)
     X:     0.0000      Y:     0.0000      Z:     0.0000

  Dipole Moment: (a.u.)
     X:     0.0000      Y:     0.0000      Z:     0.0000     Total:     0.0000

  Dipole Moment: (Debye)
     X:     0.0000      Y:     0.0000      Z:     0.0000     Total:     0.0000


  Saving occupied orbitals to File 180.

*** tstop() called on mschen3m-ThinkPad-X230-Tablet at Wed Jan 10 15:48:39 2018
Module time:
	user time   =       2.56 seconds =       0.04 minutes
	system time =       0.01 seconds =       0.00 minutes
	total time  =          2 seconds =       0.03 minutes
Total time:
	user time   =       8.96 seconds =       0.15 minutes
	system time =       0.10 seconds =       0.00 minutes
	total time  =          6 seconds =       0.10 minutes

*** tstart() called on mschen3m-ThinkPad-X230-Tablet
*** at Wed Jan 10 15:48:39 2018


         ------------------------------------------------------------
                                   SCF GRAD                          
                          Rob Parrish, Justin Turney,                
                       Andy Simmonett, and Alex Sokolov              
         ------------------------------------------------------------

  ==> Geometry <==

    Molecular point group: c2h
    Full point group: C2h

    Geometry (in Angstrom), charge = 0, multiplicity = 1:

       Center              X                  Y                   Z       
    ------------   -----------------  -----------------  -----------------
           C          1.954406280378     0.131968229737     0.000000000000
           H          2.738128523726    -0.619410014291     0.000000000000
           H          2.096043509483     0.757427041867    -0.876986186334
           H          2.096043509483     0.757427041867     0.876986186334
           C          0.568351445379    -0.511857145189     0.000000000000
           H          0.469776349057    -1.157328795958     0.870428655082
           H          0.469776349057    -1.157328795958    -0.870428655082
           C         -0.568351445379     0.511857145189     0.000000000000
           H         -0.469776349057     1.157328795958     0.870428655082
           H         -0.469776349057     1.157328795958    -0.870428655082
           C         -1.954406280378    -0.131968229737     0.000000000000
           H         -2.738128523726     0.619410014291     0.000000000000
           H         -2.096043509483    -0.757427041867    -0.876986186334
           H         -2.096043509483    -0.757427041867     0.876986186334

  Nuclear repulsion =  130.838864146234982

  ==> Basis Set <==

  Basis Set: 6-31G(D)
    Number of shells: 44
    Number of basis function: 80
    Number of Cartesian functions: 80
    Spherical Harmonics?: false
    Max angular momentum: 2

  ==> DFJKGrad: Density-Fitted SCF Gradients <==

    Gradient:                    1
    J tasked:                  Yes
    K tasked:                  Yes
    wK tasked:                  No
    OpenMP threads:              8
    Integrals threads:           8
    Memory (MB):             89406
    Schwarz Cutoff:          0E+00
    Fitting Condition:       1E-12

   => Auxiliary Basis Set <=

  Basis Set: 
    Number of shells: 186
    Number of basis function: 574
    Number of Cartesian functions: 574
    Spherical Harmonics?: false
    Max angular momentum: 3


  -Total Gradient:
     Atom            X                  Y                   Z
    ------   -----------------  -----------------  -----------------
       1        0.000013693033     0.000030449023     0.000000000054
       2        0.000032840061    -0.000017689447    -0.000000000002
       3        0.000003876332     0.000003290642    -0.000008107207
       4        0.000003876343     0.000003290623     0.000008107164
       5       -0.000046645605    -0.000029720457     0.000000000087
       6       -0.000000407445     0.000004451552     0.000016905524
       7       -0.000000407449     0.000004451488    -0.000016905622
       8        0.000046646087     0.000029720915     0.000000000059
       9        0.000000407192    -0.000004451765     0.000016905525
      10        0.000000407191    -0.000004451745    -0.000016905579
      11       -0.000013692207    -0.000030448609    -0.000000000154
      12       -0.000032840488     0.000017689797     0.000000000008
      13       -0.000003876506    -0.000003290975    -0.000008107534
      14       -0.000003876538    -0.000003291042     0.000008107677


*** tstop() called on mschen3m-ThinkPad-X230-Tablet at Wed Jan 10 15:48:41 2018
Module time:
	user time   =       3.08 seconds =       0.05 minutes
	system time =       0.03 seconds =       0.00 minutes
	total time  =          2 seconds =       0.03 minutes
Total time:
	user time   =      12.04 seconds =       0.20 minutes
	system time =       0.13 seconds =       0.00 minutes
	total time  =          8 seconds =       0.13 minutes
CURRENT ENERGY: -157.2983973363

			-----------------------------------------
			 OPTKING 2.0: for geometry optimizations 
			  - R.A. King,  Bethel University        
			-----------------------------------------

	Previous internal coordinate definitions found.
	---Fragment 1 Geometry and Gradient---
	 C           3.6932926223        0.2493838124        0.0000000000
	 H           5.1743130265       -1.1705152910        0.0000000000
	 H           3.9609481955        1.4313296748       -1.6572637145
	 H           3.9609481955        1.4313296748        1.6572637145
	 C           1.0740285790       -0.9672698236        0.0000000000
	 H           0.8877486434       -2.1870344701        1.6448717763
	 H           0.8877486434       -2.1870344701       -1.6448717763
	 C          -1.0740285790        0.9672698236        0.0000000000
	 H          -0.8877486434        2.1870344701        1.6448717763
	 H          -0.8877486434        2.1870344701       -1.6448717763
	 C          -3.6932926223       -0.2493838124        0.0000000000
	 H          -5.1743130265        1.1705152910        0.0000000000
	 H          -3.9609481955       -1.4313296748       -1.6572637145
	 H          -3.9609481955       -1.4313296748        1.6572637145
	             0.0000136930        0.0000304490        0.0000000001
	             0.0000328401       -0.0000176894       -0.0000000000
	             0.0000038763        0.0000032906       -0.0000081072
	             0.0000038763        0.0000032906        0.0000081072
	            -0.0000466456       -0.0000297205        0.0000000001
	            -0.0000004074        0.0000044516        0.0000169055
	            -0.0000004074        0.0000044515       -0.0000169056
	             0.0000466461        0.0000297209        0.0000000001
	             0.0000004072       -0.0000044518        0.0000169055
	             0.0000004072       -0.0000044517       -0.0000169056
	            -0.0000136922       -0.0000304486       -0.0000000002
	            -0.0000328405        0.0000176898        0.0000000000
	            -0.0000038765       -0.0000032910       -0.0000081075
	            -0.0000038765       -0.0000032910        0.0000081077

	---Fragment 1 Intrafragment Coordinates---
	 - Coordinate -           - BOHR/RAD -       - ANG/DEG -
	 R(1,2)           =         2.051715	       1.085721
	 R(1,3)           =         2.053085	       1.086446
	 R(1,4)           =         2.053085	       1.086446
	 R(1,5)           =         2.888043	       1.528286
	 R(5,6)           =         2.056242	       1.088116
	 R(5,7)           =         2.056242	       1.088116
	 R(5,8)           =         2.890777	       1.529734
	 R(8,9)           =         2.056242	       1.088116
	 R(8,10)          =         2.056242	       1.088116
	 R(8,11)          =         2.888043	       1.528286
	 R(11,12)         =         2.051715	       1.085721
	 R(11,13)         =         2.053085	       1.086446
	 R(11,14)         =         2.053085	       1.086446
	 B(1,5,6)         =         1.909284	     109.393906
	 B(1,5,7)         =         1.909284	     109.393906
	 B(1,5,8)         =         1.973598	     113.078842
	 B(2,1,3)         =         1.880006	     107.716393
	 B(2,1,4)         =         1.880006	     107.716393
	 B(2,1,5)         =         1.942413	     111.292055
	 B(3,1,4)         =         1.878808	     107.647785
	 B(3,1,5)         =         1.939877	     111.146774
	 B(4,1,5)         =         1.939877	     111.146774
	 B(5,8,9)         =         1.906740	     109.248132
	 B(5,8,10)        =         1.906740	     109.248132
	 B(5,8,11)        =         1.973598	     113.078842
	 B(6,5,7)         =         1.854394	     106.248926
	 B(6,5,8)         =         1.906740	     109.248132
	 B(7,5,8)         =         1.906740	     109.248132
	 B(8,11,12)       =         1.942413	     111.292055
	 B(8,11,13)       =         1.939877	     111.146774
	 B(8,11,14)       =         1.939877	     111.146774
	 B(9,8,10)        =         1.854394	     106.248926
	 B(9,8,11)        =         1.909284	     109.393906
	 B(10,8,11)       =         1.909284	     109.393906
	 B(12,11,13)      =         1.880006	     107.716393
	 B(12,11,14)      =         1.880006	     107.716393
	 B(13,11,14)      =         1.878808	     107.647785
	 D(1,5,8,9)       =        -1.010891	     -57.919801
	 D(1,5,8,10)      =         1.010891	      57.919801
	 D(1,5,8,11)      =         3.141593	     180.000000
	 D(2,1,5,6)       =         1.012317	      58.001468
	 D(2,1,5,7)       =        -1.012317	     -58.001468
	 D(2,1,5,8)       =         3.141593	     180.000000
	 D(3,1,5,6)       =         3.107783	     178.062863
	 D(3,1,5,7)       =         1.083150	      62.059927
	 D(3,1,5,8)       =        -1.046126	     -59.938605
	 D(4,1,5,6)       =        -1.083150	     -62.059927
	 D(4,1,5,7)       =        -3.107783	    -178.062863
	 D(4,1,5,8)       =         1.046126	      59.938605
	 D(5,8,11,12)     =         3.141593	     180.000000
	 D(5,8,11,13)     =        -1.046126	     -59.938605
	 D(5,8,11,14)     =         1.046126	      59.938605
	 D(6,5,8,9)       =         1.119810	      64.160399
	 D(6,5,8,10)      =         3.141593	     180.000000
	 D(6,5,8,11)      =        -1.010891	     -57.919801
	 D(7,5,8,9)       =         3.141593	     180.000000
	 D(7,5,8,10)      =        -1.119810	     -64.160399
	 D(7,5,8,11)      =         1.010891	      57.919801
	 D(9,8,11,12)     =         1.012317	      58.001468
	 D(9,8,11,13)     =         3.107783	     178.062863
	 D(9,8,11,14)     =        -1.083150	     -62.059927
	 D(10,8,11,12)    =        -1.012317	     -58.001468
	 D(10,8,11,13)    =         1.083150	      62.059927
	 D(10,8,11,14)    =        -3.107783	    -178.062863

	Current energy   :      -157.2983973363

	Energy change for the previous step:
		Projected    :        -0.0000045532
		Actual       :        -0.0000018081

	Performing BFGS update.
	Previous computed or guess Hessian on step 1.
	Steps to be used in Hessian update: 1
	Taking RFO optimization step.
	Going to follow RFO solution 1.
	Using RFO vector 1.
	Norm of target step-size    0.00054
	Projected energy change by RFO approximation:        -0.0000000334

	Back-transformation to cartesian coordinates...
	Successfully converged to displaced geometry.

	--- Internal Coordinate Step in ANG or DEG, aJ/ANG or AJ/DEG ---
	 ---------------------------------------------------------------------------
	   Coordinate                Previous        Force       Change         New 
	   ----------                --------       ------       ------       ------
	    1 R(1,2)          =      1.085721    -0.000296    -0.000053     1.085668
	    2 R(1,3)          =      1.086446    -0.000074    -0.000011     1.086435
	    3 R(1,4)          =      1.086446    -0.000074    -0.000011     1.086435
	    4 R(1,5)          =      1.528286    -0.000473    -0.000102     1.528185
	    5 R(5,6)          =      1.088116    -0.000090    -0.000009     1.088108
	    6 R(5,7)          =      1.088116    -0.000090    -0.000009     1.088108
	    7 R(5,8)          =      1.529734    -0.000050    -0.000007     1.529727
	    8 R(8,9)          =      1.088116    -0.000090    -0.000009     1.088108
	    9 R(8,10)         =      1.088116    -0.000090    -0.000009     1.088108
	   10 R(8,11)         =      1.528286    -0.000473    -0.000102     1.528185
	   11 R(11,12)        =      1.085721    -0.000296    -0.000053     1.085668
	   12 R(11,13)        =      1.086446    -0.000074    -0.000011     1.086435
	   13 R(11,14)        =      1.086446    -0.000074    -0.000011     1.086435
	   14 B(1,5,6)        =    109.393906     0.000000     0.001643   109.395548
	   15 B(1,5,7)        =    109.393906     0.000000     0.001643   109.395548
	   16 B(1,5,8)        =    113.078842    -0.000000     0.000724   113.079567
	   17 B(2,1,3)        =    107.716393     0.000001     0.002946   107.719339
	   18 B(2,1,4)        =    107.716393     0.000001     0.002946   107.719339
	   19 B(2,1,5)        =    111.292055    -0.000001    -0.004825   111.287230
	   20 B(3,1,4)        =    107.647785    -0.000000    -0.000388   107.647397
	   21 B(3,1,5)        =    111.146774    -0.000000    -0.000179   111.146594
	   22 B(4,1,5)        =    111.146774    -0.000000    -0.000179   111.146594
	   23 B(5,8,9)        =    109.248132     0.000000     0.001858   109.249990
	   24 B(5,8,10)       =    109.248132     0.000000     0.001858   109.249990
	   25 B(5,8,11)       =    113.078842    -0.000000     0.000725   113.079567
	   26 B(6,5,7)        =    106.248926    -0.000001    -0.008313   106.240614
	   27 B(6,5,8)        =    109.248132     0.000000     0.001858   109.249990
	   28 B(7,5,8)        =    109.248132     0.000000     0.001858   109.249990
	   29 B(8,11,12)      =    111.292055    -0.000001    -0.004825   111.287230
	   30 B(8,11,13)      =    111.146774    -0.000000    -0.000179   111.146594
	   31 B(8,11,14)      =    111.146774    -0.000000    -0.000179   111.146594
	   32 B(9,8,10)       =    106.248926    -0.000001    -0.008313   106.240614
	   33 B(9,8,11)       =    109.393906     0.000000     0.001643   109.395548
	   34 B(10,8,11)      =    109.393906     0.000000     0.001643   109.395548
	   35 B(12,11,13)     =    107.716393     0.000001     0.002946   107.719339
	   36 B(12,11,14)     =    107.716393     0.000001     0.002946   107.719339
	   37 B(13,11,14)     =    107.647785    -0.000000    -0.000388   107.647397
	   38 D(1,5,8,9)      =    -57.919801     0.000000     0.003939   -57.915862
	   39 D(1,5,8,10)     =     57.919801    -0.000000    -0.003939    57.915861
	   40 D(1,5,8,11)     =    180.000000    -0.000000     0.000000   180.000000
	   41 D(2,1,5,6)      =     58.001468    -0.000000    -0.004064    57.997403
	   42 D(2,1,5,7)      =    -58.001468     0.000000     0.004064   -57.997404
	   43 D(2,1,5,8)      =    180.000000    -0.000000     0.000000   180.000000
	   44 D(3,1,5,6)      =    178.062863    -0.000000    -0.003700   178.059163
	   45 D(3,1,5,7)      =     62.059927     0.000000     0.004429    62.064356
	   46 D(3,1,5,8)      =    -59.938605     0.000000     0.000365   -59.938240
	   47 D(4,1,5,6)      =    -62.059927    -0.000000    -0.004429   -62.064356
	   48 D(4,1,5,7)      =   -178.062863     0.000000     0.003699  -178.059163
	   49 D(4,1,5,8)      =     59.938605    -0.000000    -0.000365    59.938240
	   50 D(5,8,11,12)    =    180.000000    -0.000000     0.000000   180.000000
	   51 D(5,8,11,13)    =    -59.938605     0.000000     0.000365   -59.938240
	   52 D(5,8,11,14)    =     59.938605    -0.000000    -0.000365    59.938240
	   53 D(6,5,8,9)      =     64.160399     0.000000     0.007878    64.168276
	   54 D(6,5,8,10)     =    180.000000    -0.000000     0.000000   180.000000
	   55 D(6,5,8,11)     =    -57.919801     0.000000     0.003939   -57.915862
	   56 D(7,5,8,9)      =    180.000000     0.000000     0.000000   180.000000
	   57 D(7,5,8,10)     =    -64.160399    -0.000000    -0.007878   -64.168277
	   58 D(7,5,8,11)     =     57.919801    -0.000000    -0.003939    57.915862
	   59 D(9,8,11,12)    =     58.001468    -0.000000    -0.004065    57.997403
	   60 D(9,8,11,13)    =    178.062863    -0.000000    -0.003700   178.059163
	   61 D(9,8,11,14)    =    -62.059927    -0.000000    -0.004430   -62.064357
	   62 D(10,8,11,12)   =    -58.001468     0.000000     0.004064   -57.997404
	   63 D(10,8,11,13)   =     62.059927     0.000000     0.004429    62.064356
	   64 D(10,8,11,14)   =   -178.062863     0.000000     0.003699  -178.059163
	 ---------------------------------------------------------------------------

  ==> Convergence Check <==

  Measures of convergence in internal coordinates in au.
  Criteria marked as inactive (o), active & met (*), and active & unmet ( ).
  ---------------------------------------------------------------------------------------------
   Step     Total Energy     Delta E     MAX Force     RMS Force      MAX Disp      RMS Disp   
  ---------------------------------------------------------------------------------------------
    Convergence Criteria             o    1.50e-05 *    1.00e-05 *    6.00e-05 *    4.00e-05 *
  ---------------------------------------------------------------------------------------------
      2    -157.29839734   -1.81e-06 o    5.74e-05      1.31e-05      1.93e-04      6.72e-05    ~
  ---------------------------------------------------------------------------------------------

	Writing optimization data to binary file.
	Structure for next step:
	Cartesian Geometry (in Angstrom)
	    C     1.9543159399   0.1319642914   0.0000000000
	    H     2.7379483167  -0.6194317973  -0.0000000000
	    H     2.0959368407   0.7574232832  -0.8769752645
	    H     2.0959368407   0.7574232832   0.8769752645
	    C     0.5683630877  -0.5118391038   0.0000000000
	    H     0.4697954952  -1.1573706446   0.8703745303
	    H     0.4697954952  -1.1573706446  -0.8703745303
	    C    -0.5683630877   0.5118391038   0.0000000000
	    H    -0.4697954952   1.1573706446   0.8703745303
	    H    -0.4697954952   1.1573706446  -0.8703745303
	    C    -1.9543159399  -0.1319642914   0.0000000000
	    H    -2.7379483167   0.6194317973   0.0000000000
	    H    -2.0959368407  -0.7574232832  -0.8769752645
	    H    -2.0959368407  -0.7574232832   0.8769752645
			--------------------------
			 OPTKING Finished Execution 
			--------------------------

    Structure for next step:
    Molecular point group: c2h
    Full point group: C2h

    Geometry (in Angstrom), charge = 0, multiplicity = 1:

    C            1.954315790700     0.131964281293     0.000000000000
    H            2.737948107582    -0.619431750038     0.000000000000
    H            2.095936680603     0.757423225405    -0.876975197528
    H            2.095936680603     0.757423225405     0.876975197528
    C            0.568363044337    -0.511839064760     0.000000000000
    H            0.469795459302    -1.157370556266     0.870374463843
    H            0.469795459302    -1.157370556266    -0.870374463843
    C           -0.568363044337     0.511839064760     0.000000000000
    H           -0.469795459302     1.157370556266     0.870374463843
    H           -0.469795459302     1.157370556266    -0.870374463843
    C           -1.954315790700    -0.131964281293     0.000000000000
    H           -2.737948107582     0.619431750038     0.000000000000
    H           -2.095936680603    -0.757423225405    -0.876975197528
    H           -2.095936680603    -0.757423225405     0.876975197528

gradient() will perform analytic gradient computation.

*** tstart() called on mschen3m-ThinkPad-X230-Tablet
*** at Wed Jan 10 15:48:41 2018


         ---------------------------------------------------------
                                   SCF
            by Justin Turney, Rob Parrish, and Andy Simmonett
                              RHF Reference
                        8 Threads, 125000 MiB Core
         ---------------------------------------------------------

  ==> Geometry <==

    Molecular point group: c2h
    Full point group: C2h

    Geometry (in Angstrom), charge = 0, multiplicity = 1:

       Center              X                  Y                   Z       
    ------------   -----------------  -----------------  -----------------
           C          1.954315790700     0.131964281293     0.000000000000
           H          2.737948107582    -0.619431750038     0.000000000000
           H          2.095936680603     0.757423225405    -0.876975197528
           H          2.095936680603     0.757423225405     0.876975197528
           C          0.568363044337    -0.511839064760     0.000000000000
           H          0.469795459302    -1.157370556266     0.870374463843
           H          0.469795459302    -1.157370556266    -0.870374463843
           C         -0.568363044337     0.511839064760     0.000000000000
           H         -0.469795459302     1.157370556266     0.870374463843
           H         -0.469795459302     1.157370556266    -0.870374463843
           C         -1.954315790700    -0.131964281293     0.000000000000
           H         -2.737948107582     0.619431750038     0.000000000000
           H         -2.095936680603    -0.757423225405    -0.876975197528
           H         -2.095936680603    -0.757423225405     0.876975197528

  Running in c2h symmetry.

  Rotational constants: A =      0.78974  B =      0.12103  C =      0.11366 [cm^-1]
  Rotational constants: A =  23675.75028  B =   3628.49285  C =   3407.40448 [MHz]
  Nuclear repulsion =  130.843275405378023

  Charge       = 0
  Multiplicity = 1
  Electrons    = 34
  Nalpha       = 17
  Nbeta        = 17

  ==> Algorithm <==

  SCF Algorithm Type is DF.
  DIIS enabled.
  MOM disabled.
  Fractional occupation disabled.
  Guess Type is READ.
  Energy threshold   = 1.00e-08
  Density threshold  = 1.00e-08
  Integral threshold = 0.00e+00

  ==> Primary Basis <==

  Basis Set: 6-31G(D)
    Number of shells: 44
    Number of basis function: 80
    Number of Cartesian functions: 80
    Spherical Harmonics?: false
    Max angular momentum: 2

  ==> Pre-Iterations <==

   -------------------------------------------------------
    Irrep   Nso     Nmo     Nalpha   Nbeta   Ndocc  Nsocc
   -------------------------------------------------------
     Ag        28      28       0       0       0       0
     Bg        12      12       0       0       0       0
     Au        12      12       0       0       0       0
     Bu        28      28       0       0       0       0
   -------------------------------------------------------
    Total      80      80      17      17      17       0
   -------------------------------------------------------

 OEINTS: Overlap, kinetic, potential, dipole, and quadrupole integrals
         stored in file 35.

  ==> Integral Setup <==

  ==> DFJK: Density-Fitted J/K Matrices <==

    J tasked:                  Yes
    K tasked:                  Yes
    wK tasked:                  No
    OpenMP threads:              8
    Integrals threads:           8
    Memory (MB):             89406
    Algorithm:                Core
    Integral Cache:           NONE
    Schwarz Cutoff:          1E-12
    Fitting Condition:       1E-12

   => Auxiliary Basis Set <=

  Basis Set: 
    Number of shells: 186
    Number of basis function: 574
    Number of Cartesian functions: 574
    Spherical Harmonics?: false
    Max angular momentum: 3

  Minimum eigenvalue in the overlap matrix is 4.6242952277E-03.
  Using Symmetric Orthogonalization.
  SCF Guess: Reading in previously saved MOs, projecting if necessary.

  Using orbitals from previous SCF, no projection.
  Recomputing DOCC and SOCC from number of alpha and beta electrons from previous calculation.
             Ag    Bg    Au    Bu 
    DOCC [     7,    2,    2,    6 ]

  ==> Iterations <==

                           Total Energy        Delta E     RMS |[F,P]|

   @DF-RHF iter   0:  -157.29850405180352   -1.57299e+02   6.18364e-06 
   @DF-RHF iter   1:  -157.29839735557036    1.06696e-04   5.98429e-07 
   @DF-RHF iter   2:  -157.29839735599685   -4.26496e-10   1.91187e-07 DIIS
   @DF-RHF iter   3:  -157.29839735603596   -3.91083e-11   6.06945e-08 DIIS
   @DF-RHF iter   4:  -157.29839735604199   -6.02540e-12   1.20602e-08 DIIS
   @DF-RHF iter   5:  -157.29839735604210   -1.13687e-13   3.06332e-09 DIIS

  ==> Post-Iterations <==

    Orbital Energies (a.u.)
    -----------------------

    Doubly Occupied:                                                      

       1Ag   -11.213798     1Bu   -11.213204     2Ag   -11.207360  
       2Bu   -11.207357     3Ag    -1.069703     3Bu    -0.981036  
       4Ag    -0.862364     4Bu    -0.789520     1Au    -0.638631  
       5Ag    -0.584854     5Bu    -0.574269     1Bg    -0.568607  
       6Bu    -0.515443     2Au    -0.496397     6Ag    -0.468535  
       2Bg    -0.462264     7Ag    -0.455825  

    Virtual:                                                              

       8Ag     0.232817     7Bu     0.262171     3Au     0.285377  
       8Bu     0.294862     9Ag     0.321678    10Ag     0.336841  
       9Bu     0.338121     3Bg     0.340785     4Au     0.353369  
       4Bg     0.353562    10Bu     0.420482    11Ag     0.424638  
      11Bu     0.442503    12Bu     0.698130    12Ag     0.700515  
       5Bg     0.753306     5Au     0.754677    13Ag     0.758069  
      13Bu     0.847373     6Au     0.866579    14Ag     0.931155  
      14Bu     0.966419    15Bu     1.027548     6Bg     1.062463  
      15Ag     1.112822     7Au     1.136677    16Ag     1.172902  
      16Bu     1.189101     7Bg     1.192262     8Au     1.203749  
      17Ag     1.209901    18Ag     1.229142    17Bu     1.235383  
      18Bu     1.245265    19Ag     1.276951     8Bg     1.283806  
      19Bu     1.615575    20Ag     1.696807     9Au     1.707246  
      20Bu     1.740808    21Ag     1.912917    21Bu     1.929827  
       9Bg     2.141887    22Bu     2.190037    22Ag     2.223728  
      10Au     2.274345    23Ag     2.285323    23Bu     2.337642  
      10Bg     2.387394    24Ag     2.502068    11Bg     2.607831  
      11Au     2.613347    24Bu     2.649144    12Bg     2.744030  
      25Ag     2.752467    12Au     2.756389    25Bu     2.900406  
      26Ag     3.033649    26Bu     3.103842    27Ag     4.566719  
      27Bu     4.675703    28Ag     4.794688    28Bu     4.943669  

    Final Occupation by Irrep:
             Ag    Bg    Au    Bu 
    DOCC [     7,    2,    2,    6 ]

  Energy converged.

  @DF-RHF Final Energy:  -157.29839735604210

   => Energetics <=

    Nuclear Repulsion Energy =            130.8432754053780229
    One-Electron Energy =                -469.6650167292372089
    Two-Electron Energy =                 181.5233439678170271
    DFT Exchange-Correlation Energy =       0.0000000000000000
    Empirical Dispersion Energy =           0.0000000000000000
    PCM Polarization Energy =               0.0000000000000000
    EFP Energy =                            0.0000000000000000
    Total Energy =                       -157.2983973560421873

    Alert: EFP and PCM quantities not currently incorporated into SCF psivars.

Properties will be evaluated at   0.000000,   0.000000,   0.000000 Bohr
  ==> Properties <==


Properties computed using the SCF density matrix

  Nuclear Dipole Moment: (a.u.)
     X:    -0.0000      Y:    -0.0000      Z:    -0.0000

  Electronic Dipole Moment: (a.u.)
     X:     0.0000      Y:     0.0000      Z:     0.0000

  Dipole Moment: (a.u.)
     X:    -0.0000      Y:    -0.0000      Z:    -0.0000     Total:     0.0000

  Dipole Moment: (Debye)
     X:    -0.0000      Y:    -0.0000      Z:    -0.0000     Total:     0.0000


  Saving occupied orbitals to File 180.

*** tstop() called on mschen3m-ThinkPad-X230-Tablet at Wed Jan 10 15:48:43 2018
Module time:
	user time   =       2.58 seconds =       0.04 minutes
	system time =       0.02 seconds =       0.00 minutes
	total time  =          2 seconds =       0.03 minutes
Total time:
	user time   =      14.64 seconds =       0.24 minutes
	system time =       0.15 seconds =       0.00 minutes
	total time  =         10 seconds =       0.17 minutes

*** tstart() called on mschen3m-ThinkPad-X230-Tablet
*** at Wed Jan 10 15:48:43 2018


         ------------------------------------------------------------
                                   SCF GRAD                          
                          Rob Parrish, Justin Turney,                
                       Andy Simmonett, and Alex Sokolov              
         ------------------------------------------------------------

  ==> Geometry <==

    Molecular point group: c2h
    Full point group: C2h

    Geometry (in Angstrom), charge = 0, multiplicity = 1:

       Center              X                  Y                   Z       
    ------------   -----------------  -----------------  -----------------
           C          1.954315790700     0.131964281293     0.000000000000
           H          2.737948107582    -0.619431750038     0.000000000000
           H          2.095936680603     0.757423225405    -0.876975197528
           H          2.095936680603     0.757423225405     0.876975197528
           C          0.568363044337    -0.511839064760     0.000000000000
           H          0.469795459302    -1.157370556266     0.870374463843
           H          0.469795459302    -1.157370556266    -0.870374463843
           C         -0.568363044337     0.511839064760     0.000000000000
           H         -0.469795459302     1.157370556266     0.870374463843
           H         -0.469795459302     1.157370556266    -0.870374463843
           C         -1.954315790700    -0.131964281293     0.000000000000
           H         -2.737948107582     0.619431750038     0.000000000000
           H         -2.095936680603    -0.757423225405    -0.876975197528
           H         -2.095936680603    -0.757423225405     0.876975197528

  Nuclear repulsion =  130.843275405378023

  ==> Basis Set <==

  Basis Set: 6-31G(D)
    Number of shells: 44
    Number of basis function: 80
    Number of Cartesian functions: 80
    Spherical Harmonics?: false
    Max angular momentum: 2

  ==> DFJKGrad: Density-Fitted SCF Gradients <==

    Gradient:                    1
    J tasked:                  Yes
    K tasked:                  Yes
    wK tasked:                  No
    OpenMP threads:              8
    Integrals threads:           8
    Memory (MB):             89406
    Schwarz Cutoff:          0E+00
    Fitting Condition:       1E-12

   => Auxiliary Basis Set <=

  Basis Set: 
    Number of shells: 186
    Number of basis function: 574
    Number of Cartesian functions: 574
    Spherical Harmonics?: false
    Max angular momentum: 3


  -Total Gradient:
     Atom            X                  Y                   Z
    ------   -----------------  -----------------  -----------------
       1        0.000001101223     0.000002817855    -0.000000000078
       2       -0.000003839205    -0.000001881916     0.000000000003
       3       -0.000001950857     0.000000028590    -0.000001196022
       4       -0.000001950827     0.000000028661     0.000001196107
       5       -0.000001159166    -0.000007841562     0.000000000196
       6        0.000002146365    -0.000000877897     0.000001739295
       7        0.000002146343    -0.000000877957    -0.000001739507
       8        0.000001155944     0.000007842440     0.000000000083
       9       -0.000002145134     0.000000877208     0.000001738904
      10       -0.000002145126     0.000000877216    -0.000001738992
      11       -0.000001100614    -0.000002817114     0.000000000051
      12        0.000003839623     0.000001881179    -0.000000000004
      13        0.000001950718    -0.000000028362    -0.000001195395
      14        0.000001950714    -0.000000028341     0.000001195357


*** tstop() called on mschen3m-ThinkPad-X230-Tablet at Wed Jan 10 15:48:44 2018
Module time:
	user time   =       3.10 seconds =       0.05 minutes
	system time =       0.02 seconds =       0.00 minutes
	total time  =          1 seconds =       0.02 minutes
Total time:
	user time   =      17.74 seconds =       0.30 minutes
	system time =       0.17 seconds =       0.00 minutes
	total time  =         11 seconds =       0.18 minutes
CURRENT ENERGY: -157.2983973560

			-----------------------------------------
			 OPTKING 2.0: for geometry optimizations 
			  - R.A. King,  Bethel University        
			-----------------------------------------

	Previous internal coordinate definitions found.
	---Fragment 1 Geometry and Gradient---
	 C           3.6931216216        0.2493763510        0.0000000000
	 H           5.1739720894       -1.1705563656        0.0000000000
	 H           3.9607463182        1.4313224627       -1.6572429487
	 H           3.9607463182        1.4313224627        1.6572429487
	 C           1.0740504979       -0.9672356565        0.0000000000
	 H           0.8877847566       -2.1871133856        1.6447693697
	 H           0.8877847566       -2.1871133856       -1.6447693697
	 C          -1.0740504979        0.9672356565        0.0000000000
	 H          -0.8877847566        2.1871133856        1.6447693697
	 H          -0.8877847566        2.1871133856       -1.6447693697
	 C          -3.6931216216       -0.2493763510        0.0000000000
	 H          -5.1739720894        1.1705563656        0.0000000000
	 H          -3.9607463182       -1.4313224627       -1.6572429487
	 H          -3.9607463182       -1.4313224627        1.6572429487
	             0.0000011012        0.0000028179       -0.0000000001
	            -0.0000038392       -0.0000018819        0.0000000000
	            -0.0000019509        0.0000000286       -0.0000011960
	            -0.0000019508        0.0000000287        0.0000011961
	            -0.0000011592       -0.0000078416        0.0000000002
	             0.0000021464       -0.0000008779        0.0000017393
	             0.0000021463       -0.0000008780       -0.0000017395
	             0.0000011559        0.0000078424        0.0000000001
	            -0.0000021451        0.0000008772        0.0000017389
	            -0.0000021451        0.0000008772       -0.0000017390
	            -0.0000011006       -0.0000028171        0.0000000001
	             0.0000038396        0.0000018812       -0.0000000000
	             0.0000019507       -0.0000000284       -0.0000011954
	             0.0000019507       -0.0000000283        0.0000011954

	---Fragment 1 Intrafragment Coordinates---
	 - Coordinate -           - BOHR/RAD -       - ANG/DEG -
	 R(1,2)           =         2.051616	       1.085668
	 R(1,3)           =         2.053064	       1.086435
	 R(1,4)           =         2.053064	       1.086435
	 R(1,5)           =         2.887850	       1.528185
	 R(5,6)           =         2.056225	       1.088108
	 R(5,7)           =         2.056225	       1.088108
	 R(5,8)           =         2.890764	       1.529727
	 R(8,9)           =         2.056225	       1.088108
	 R(8,10)          =         2.056225	       1.088108
	 R(8,11)          =         2.887850	       1.528185
	 R(11,12)         =         2.051616	       1.085668
	 R(11,13)         =         2.053064	       1.086435
	 R(11,14)         =         2.053064	       1.086435
	 B(1,5,6)         =         1.909313	     109.395548
	 B(1,5,7)         =         1.909313	     109.395548
	 B(1,5,8)         =         1.973611	     113.079567
	 B(2,1,3)         =         1.880057	     107.719339
	 B(2,1,4)         =         1.880057	     107.719339
	 B(2,1,5)         =         1.942329	     111.287230
	 B(3,1,4)         =         1.878802	     107.647397
	 B(3,1,5)         =         1.939874	     111.146594
	 B(4,1,5)         =         1.939874	     111.146594
	 B(5,8,9)         =         1.906772	     109.249990
	 B(5,8,10)        =         1.906772	     109.249990
	 B(5,8,11)        =         1.973611	     113.079567
	 B(6,5,7)         =         1.854249	     106.240614
	 B(6,5,8)         =         1.906772	     109.249990
	 B(7,5,8)         =         1.906772	     109.249990
	 B(8,11,12)       =         1.942329	     111.287230
	 B(8,11,13)       =         1.939874	     111.146594
	 B(8,11,14)       =         1.939874	     111.146594
	 B(9,8,10)        =         1.854249	     106.240614
	 B(9,8,11)        =         1.909313	     109.395548
	 B(10,8,11)       =         1.909313	     109.395548
	 B(12,11,13)      =         1.880057	     107.719339
	 B(12,11,14)      =         1.880057	     107.719339
	 B(13,11,14)      =         1.878802	     107.647397
	 D(1,5,8,9)       =        -1.010822	     -57.915862
	 D(1,5,8,10)      =         1.010822	      57.915862
	 D(1,5,8,11)      =         3.141593	     180.000000
	 D(2,1,5,6)       =         1.012246	      57.997403
	 D(2,1,5,7)       =        -1.012246	     -57.997403
	 D(2,1,5,8)       =         3.141593	     180.000000
	 D(3,1,5,6)       =         3.107719	     178.059163
	 D(3,1,5,7)       =         1.083227	      62.064356
	 D(3,1,5,8)       =        -1.046120	     -59.938240
	 D(4,1,5,6)       =        -1.083227	     -62.064356
	 D(4,1,5,7)       =        -3.107719	    -178.059163
	 D(4,1,5,8)       =         1.046120	      59.938240
	 D(5,8,11,12)     =         3.141593	     180.000000
	 D(5,8,11,13)     =        -1.046120	     -59.938240
	 D(5,8,11,14)     =         1.046120	      59.938240
	 D(6,5,8,9)       =         1.119948	      64.168276
	 D(6,5,8,10)      =         3.141593	     180.000000
	 D(6,5,8,11)      =        -1.010822	     -57.915862
	 D(7,5,8,9)       =         3.141593	     180.000000
	 D(7,5,8,10)      =        -1.119948	     -64.168276
	 D(7,5,8,11)      =         1.010822	      57.915862
	 D(9,8,11,12)     =         1.012246	      57.997403
	 D(9,8,11,13)     =         3.107719	     178.059163
	 D(9,8,11,14)     =        -1.083227	     -62.064356
	 D(10,8,11,12)    =        -1.012246	     -57.997403
	 D(10,8,11,13)    =         1.083227	      62.064356
	 D(10,8,11,14)    =        -3.107719	    -178.059163

	Current energy   :      -157.2983973560

	Energy change for the previous step:
		Projected    :        -0.0000000334
		Actual       :        -0.0000000197

	Performing BFGS update.
	Previous computed or guess Hessian on step 1.
	Denominators (dg)(dq) or (dq)(dq) are very small.
	 Skipping Hessian update for step 2.
	Steps to be used in Hessian update: 1
	Taking RFO optimization step.
	Going to follow RFO solution 1.
	Using RFO vector 1.
	Norm of target step-size    0.00013
	Projected energy change by RFO approximation:        -0.0000000025

	Back-transformation to cartesian coordinates...
	Successfully converged to displaced geometry.
	First geometry is closer to target in internal coordinates, so am using that one.
	First geometry has RMS(Delta(q)) = 2.53e-09

	--- Internal Coordinate Step in ANG or DEG, aJ/ANG or AJ/DEG ---
	 ---------------------------------------------------------------------------
	   Coordinate                Previous        Force       Change         New 
	   ----------                --------       ------       ------       ------
	    1 R(1,2)          =      1.085668     0.000012     0.000002     1.085671
	    2 R(1,3)          =      1.086435    -0.000006    -0.000001     1.086434
	    3 R(1,4)          =      1.086435    -0.000006    -0.000001     1.086434
	    4 R(1,5)          =      1.528185     0.000046     0.000010     1.528195
	    5 R(5,6)          =      1.088108    -0.000014    -0.000003     1.088105
	    6 R(5,7)          =      1.088108    -0.000014    -0.000003     1.088105
	    7 R(5,8)          =      1.529727    -0.000026    -0.000006     1.529721
	    8 R(8,9)          =      1.088108    -0.000014    -0.000003     1.088105
	    9 R(8,10)         =      1.088108    -0.000014    -0.000003     1.088105
	   10 R(8,11)         =      1.528185     0.000046     0.000010     1.528195
	   11 R(11,12)        =      1.085668     0.000012     0.000002     1.085671
	   12 R(11,13)        =      1.086435    -0.000006    -0.000001     1.086434
	   13 R(11,14)        =      1.086435    -0.000006    -0.000001     1.086434
	   14 B(1,5,6)        =    109.395548    -0.000000     0.000570   109.396118
	   15 B(1,5,7)        =    109.395548    -0.000000     0.000570   109.396118
	   16 B(1,5,8)        =    113.079567     0.000001     0.001999   113.081566
	   17 B(2,1,3)        =    107.719339    -0.000000    -0.001072   107.718267
	   18 B(2,1,4)        =    107.719339    -0.000000    -0.001072   107.718267
	   19 B(2,1,5)        =    111.287230     0.000000     0.001823   111.289052
	   20 B(3,1,4)        =    107.647397    -0.000000    -0.000927   107.646471
	   21 B(3,1,5)        =    111.146594     0.000000     0.000535   111.147129
	   22 B(4,1,5)        =    111.146594     0.000000     0.000535   111.147129
	   23 B(5,8,9)        =    109.249990    -0.000000    -0.001280   109.248710
	   24 B(5,8,10)       =    109.249990    -0.000000    -0.001280   109.248710
	   25 B(5,8,11)       =    113.079567     0.000001     0.001999   113.081565
	   26 B(6,5,7)        =    106.240614     0.000000    -0.000754   106.239860
	   27 B(6,5,8)        =    109.249990    -0.000000    -0.001281   109.248709
	   28 B(7,5,8)        =    109.249990    -0.000000    -0.001281   109.248709
	   29 B(8,11,12)      =    111.287230     0.000000     0.001823   111.289052
	   30 B(8,11,13)      =    111.146594     0.000000     0.000535   111.147129
	   31 B(8,11,14)      =    111.146594     0.000000     0.000535   111.147129
	   32 B(9,8,10)       =    106.240614     0.000000    -0.000754   106.239860
	   33 B(9,8,11)       =    109.395548    -0.000000     0.000570   109.396118
	   34 B(10,8,11)      =    109.395548    -0.000000     0.000570   109.396118
	   35 B(12,11,13)     =    107.719339    -0.000000    -0.001072   107.718267
	   36 B(12,11,14)     =    107.719339    -0.000000    -0.001072   107.718267
	   37 B(13,11,14)     =    107.647397    -0.000000    -0.000926   107.646471
	   38 D(1,5,8,9)      =    -57.915862     0.000000     0.001163   -57.914698
	   39 D(1,5,8,10)     =     57.915862    -0.000000    -0.001165    57.914697
	   40 D(1,5,8,11)     =    180.000000    -0.000000     0.000000   180.000000
	   41 D(2,1,5,6)      =     57.997403     0.000000    -0.000131    57.997272
	   42 D(2,1,5,7)      =    -57.997403    -0.000000     0.000131   -57.997272
	   43 D(2,1,5,8)      =    180.000000    -0.000000     0.000000   180.000000
	   44 D(3,1,5,6)      =    178.059163     0.000000     0.000097   178.059260
	   45 D(3,1,5,7)      =     62.064356     0.000000     0.000359    62.064716
	   46 D(3,1,5,8)      =    -59.938240     0.000000     0.000228   -59.938012
	   47 D(4,1,5,6)      =    -62.064356    -0.000000    -0.000359   -62.064715
	   48 D(4,1,5,7)      =   -178.059163    -0.000000    -0.000097  -178.059260
	   49 D(4,1,5,8)      =     59.938240    -0.000000    -0.000228    59.938012
	   50 D(5,8,11,12)    =    180.000000    -0.000000     0.000000   180.000000
	   51 D(5,8,11,13)    =    -59.938240     0.000000     0.000228   -59.938012
	   52 D(5,8,11,14)    =     59.938240    -0.000000    -0.000228    59.938012
	   53 D(6,5,8,9)      =     64.168276     0.000000     0.002328    64.170604
	   54 D(6,5,8,10)     =    180.000000     0.000000     0.000000   180.000000
	   55 D(6,5,8,11)     =    -57.915862     0.000000     0.001164   -57.914698
	   56 D(7,5,8,9)      =    180.000000    -0.000000     0.000000   180.000000
	   57 D(7,5,8,10)     =    -64.168276    -0.000000    -0.002329   -64.170605
	   58 D(7,5,8,11)     =     57.915862    -0.000000    -0.001165    57.914697
	   59 D(9,8,11,12)    =     57.997403     0.000000    -0.000132    57.997272
	   60 D(9,8,11,13)    =    178.059163     0.000000     0.000096   178.059260
	   61 D(9,8,11,14)    =    -62.064356    -0.000000    -0.000359   -62.064716
	   62 D(10,8,11,12)   =    -57.997403    -0.000000     0.000131   -57.997272
	   63 D(10,8,11,13)   =     62.064356     0.000000     0.000359    62.064716
	   64 D(10,8,11,14)   =   -178.059163    -0.000000    -0.000096  -178.059260
	 ---------------------------------------------------------------------------

  ==> Convergence Check <==

  Measures of convergence in internal coordinates in au.
  Criteria marked as inactive (o), active & met (*), and active & unmet ( ).
  ---------------------------------------------------------------------------------------------
   Step     Total Energy     Delta E     MAX Force     RMS Force      MAX Disp      RMS Disp   
  ---------------------------------------------------------------------------------------------
    Convergence Criteria             o    1.50e-05 *    1.00e-05 *    6.00e-05 *    4.00e-05 *
  ---------------------------------------------------------------------------------------------
      3    -157.29839736   -1.97e-08 o    6.64e-06 *    2.36e-06 *    4.06e-05 *    1.56e-05 *  ~
  ---------------------------------------------------------------------------------------------


  **** Optimization is complete! (in 3 steps) ****

  ==> Optimization Summary <==

  Measures of convergence in internal coordinates in au.
  --------------------------------------------------------------------------------------------------------------- ~
   Step         Total Energy             Delta E       MAX Force       RMS Force        MAX Disp        RMS Disp  ~
  --------------------------------------------------------------------------------------------------------------- ~
      1    -157.298395528248   -157.298395528248      0.00044762      0.00012655      0.00127491      0.00056210  ~
      2    -157.298397336299     -0.000001808052      0.00005738      0.00001313      0.00019250      0.00006722  ~
      3    -157.298397356042     -0.000000019743      0.00000664      0.00000236      0.00004065      0.00001565  ~
  --------------------------------------------------------------------------------------------------------------- ~

	Writing optimization data to binary file.
	Final energy is   -157.2983973560421
	Final (previous) structure:
	Cartesian Geometry (in Angstrom)
	    C     1.9543159399   0.1319642914   0.0000000000
	    H     2.7379483167  -0.6194317973   0.0000000000
	    H     2.0959368407   0.7574232832  -0.8769752645
	    H     2.0959368407   0.7574232832   0.8769752645
	    C     0.5683630877  -0.5118391038   0.0000000000
	    H     0.4697954952  -1.1573706446   0.8703745303
	    H     0.4697954952  -1.1573706446  -0.8703745303
	    C    -0.5683630877   0.5118391038   0.0000000000
	    H    -0.4697954952   1.1573706446   0.8703745303
	    H    -0.4697954952   1.1573706446  -0.8703745303
	    C    -1.9543159399  -0.1319642914   0.0000000000
	    H    -2.7379483167   0.6194317973   0.0000000000
	    H    -2.0959368407  -0.7574232832  -0.8769752645
	    H    -2.0959368407  -0.7574232832   0.8769752645
	Saving final (previous) structure.
			--------------------------
			 OPTKING Finished Execution 
			--------------------------

    Final optimized geometry and variables:
    Molecular point group: c2h
    Full point group: C2h

    Geometry (in Angstrom), charge = 0, multiplicity = 1:

    C            1.954315790700     0.131964281293     0.000000000000
    H            2.737948107582    -0.619431750038     0.000000000000
    H            2.095936680603     0.757423225405    -0.876975197528
    H            2.095936680603     0.757423225405     0.876975197528
    C            0.568363044337    -0.511839064760     0.000000000000
    H            0.469795459302    -1.157370556266     0.870374463843
    H            0.469795459302    -1.157370556266    -0.870374463843
    C           -0.568363044337     0.511839064760     0.000000000000
    H           -0.469795459302     1.157370556266     0.870374463843
    H           -0.469795459302     1.157370556266    -0.870374463843
    C           -1.954315790700    -0.131964281293     0.000000000000
    H           -2.737948107582     0.619431750038     0.000000000000
    H           -2.095936680603    -0.757423225405    -0.876975197528
    H           -2.095936680603    -0.757423225405     0.876975197528

	Cleaning optimization helper files.

*** PSI4 exiting successfully. Buy a developer a beer!
